============================== echo of input deck ==============================
# Taken from http://www.nwchem-sw.org/index.php/Release66:Density_Functional_Theory_for_Molecules
echo
title "carbon atom"
start carbon_fon
print high    # For MO viz
geometry units angstrom nocenter
symmetry c1
  C   0.0 0.0 0.0
end
basis
 * library 6-31G
end
dft
 direct
 grid xfine
 convergence energy 1d-8
 xc pbe0
 fon partial 3 electrons 1.8 filled 2
end
task dft energy
================================================================================

 Output coordinates in angstroms (scale by  1.889725989 to convert to a.u.)

  No.       Tag          Charge          X              Y              Z
 ---- ---------------- ---------- -------------- -------------- --------------
    1 C                    6.0000     0.00000000     0.00000000     0.00000000

         Total DFT energy =    -37.602515446957
         Total DFT energy =    -37.619575098454
         Total DFT energy =    -37.622882756631
         Total DFT energy =    -37.623032523601
         Total DFT energy =    -37.623064716176
         Total DFT energy =    -37.623068706000
         Total DFT energy =    -37.623069309831
         Total DFT energy =    -37.623069404056
         Total DFT energy =    -37.623069419244
         Total DFT energy =    -37.623069421371
         Total DFT energy =      -37.623069421742

                       DFT Final Molecular Orbital Analysis
                       ------------------------------------

 Vector    1  Occ=2.000000D+00  E=-1.048676D+01

 Vector    2  Occ=2.000000D+00  E=-6.461701D-01

 Vector    3  Occ=6.000000D-01  E=-2.397757D-01

 Vector    4  Occ=6.000000D-01  E=-2.397757D-01

 Vector    5  Occ=6.000000D-01  E=-2.397757D-01

 Vector    6  Occ=0.000000D+00  E= 4.798811D-01

 Vector    7  Occ=0.000000D+00  E= 4.798811D-01

 Vector    8  Occ=0.000000D+00  E= 4.798811D-01

 Vector    9  Occ=0.000000D+00  E= 5.320121D-01

 Total times  cpu:        1.7s     wall:        3.5s
