============================== echo of input deck ==============================
# Taken from http://www.nwchem-sw.org/index.php/Release66:Density_Functional_Theory_for_Molecules
# Partial occ core example
echo
title "carbon atom"
print high    # MO viz
start carbon_fon
geometry units angstrom nocenter
symmetry c1
 C   0.0 0.0 0.0
end
basis
 * library 6-31G
end
dft
  odft
  direct
  fon alpha partial 2 electrons 1.0 filled 2
  fon beta partial 2 electrons 1.0 filled 2
  xc pbe0
  convergence energy 1d-8
end
set dft:core_fon .true.
task dft
================================================================================

 Output coordinates in angstroms (scale by  1.889725989 to convert to a.u.)

  No.       Tag          Charge          X              Y              Z
 ---- ---------------- ---------- -------------- -------------- --------------
    1 C                    6.0000     0.00000000     0.00000000     0.00000000

         Total DFT energy =    -26.021112221261
         Total DFT energy =    -26.332796339301
         Total DFT energy =    -26.417092252306
         Total DFT energy =    -26.422259843104
         Total DFT energy =    -26.423027963891
         Total DFT energy =    -26.423145496801
         Total DFT energy =    -26.423163892837
         Total DFT energy =    -26.423166823076
         Total DFT energy =    -26.423167205633
         Total DFT energy =    -26.423167259210
         Total DFT energy =    -26.423167268033
         Total DFT energy =      -26.423167269679

                    DFT Final Alpha Molecular Orbital Analysis
                    ------------------------------------------

 Vector    1  Occ=5.000000D-01  E=-1.188522D+01

 Vector    2  Occ=5.000000D-01  E=-5.956276D-01

 Vector    3  Occ=1.000000D+00  E=-3.119032D-01

 Vector    4  Occ=1.000000D+00  E=-3.119008D-01

 Vector    5  Occ=0.000000D+00  E=-2.099093D-01

 Vector    6  Occ=0.000000D+00  E= 4.442609D-01

 Vector    7  Occ=0.000000D+00  E= 4.546307D-01

 Vector    8  Occ=0.000000D+00  E= 4.546320D-01

 Vector    9  Occ=0.000000D+00  E= 5.517992D-01

 Vector    1  Occ=5.000000D-01  E=-1.188522D+01

 Vector    2  Occ=5.000000D-01  E=-5.956276D-01

 Vector    3  Occ=1.000000D+00  E=-3.119032D-01

 Vector    4  Occ=1.000000D+00  E=-3.119008D-01

 Vector    5  Occ=0.000000D+00  E=-2.099093D-01

 Vector    6  Occ=0.000000D+00  E= 4.442609D-01

 Vector    7  Occ=0.000000D+00  E= 4.546307D-01

 Vector    8  Occ=0.000000D+00  E= 4.546320D-01

 Vector    9  Occ=0.000000D+00  E= 5.517992D-01

 Total times  cpu:        1.1s     wall:        3.7s
