============================== echo of input deck ==============================
# Taken from http://www.nwchem-sw.org/index.php/Release66:Density_Functional_Theory_for_Molecules
# Partial occ example
echo
title "carbon atom"
print high    # MO viz
start carbon_fon
geometry units angstrom nocenter
symmetry c1
 C   0.0 0.0 0.0
end
basis
 * library 6-31G
end
dft
 odft
 fon alpha partial 3 electrons 0.9 filled 2
 fon beta partial 3 electrons 0.9 filled 2
end
task dft energy
================================================================================

 Output coordinates in angstroms (scale by  1.889725989 to convert to a.u.)

  No.       Tag          Charge          X              Y              Z
 ---- ---------------- ---------- -------------- -------------- --------------
    1 C                    6.0000     0.00000000     0.00000000     0.00000000

         Total DFT energy =    -37.331706570962
         Total DFT energy =    -37.353804505239
         Total DFT energy =    -37.360491555861
         Total DFT energy =    -37.360714168928
         Total DFT energy =    -37.360771701824
         Total DFT energy =    -37.360778521276
         Total DFT energy =    -37.360779639348
         Total DFT energy =    -37.360779825676
         Total DFT energy =    -37.360779859123
         Total DFT energy =      -37.360779863616

                    DFT Final Alpha Molecular Orbital Analysis
                    ------------------------------------------

 Vector    1  Occ=1.000000D+00  E=-1.001972D+01

 Vector    2  Occ=1.000000D+00  E=-5.675716D-01

 Vector    3  Occ=3.000000D-01  E=-2.596210D-01

 Vector    4  Occ=3.000000D-01  E=-2.596219D-01

 Vector    5  Occ=3.000000D-01  E=-2.596219D-01

 Vector    6  Occ=0.000000D+00  E= 4.132378D-01

 Vector    7  Occ=0.000000D+00  E= 4.132378D-01

 Vector    8  Occ=0.000000D+00  E= 4.132397D-01

 Vector    9  Occ=0.000000D+00  E= 4.824484D-01

 Vector    1  Occ=1.000000D+00  E=-1.001972D+01

 Vector    2  Occ=1.000000D+00  E=-5.675716D-01

 Vector    3  Occ=3.000000D-01  E=-2.596210D-01

 Vector    4  Occ=3.000000D-01  E=-2.596219D-01

 Vector    5  Occ=3.000000D-01  E=-2.596219D-01

 Vector    6  Occ=0.000000D+00  E= 4.132378D-01

 Vector    7  Occ=0.000000D+00  E= 4.132378D-01

 Vector    8  Occ=0.000000D+00  E= 4.132397D-01

 Vector    9  Occ=0.000000D+00  E= 4.824484D-01

 Total times  cpu:        2.9s     wall:        4.5s
