============================== echo of input deck ==============================
# Taken from http://www.nwchem-sw.org/index.php/Release66:Density_Functional_Theory_for_Molecules
# Another functional example
echo
start h2o-hse
print high
geometry units angstrom
O      0.00000000     0.00000000     0.11726921
H      0.75698224     0.00000000    -0.46907685
H     -0.75698224     0.00000000    -0.46907685
end
basis cartesian
 * library aug-cc-pvdz
end
dft
 xc hse03
 iterations 100
 direct
 end
task dft energy
#or alternatively
dft
 xc xpbe96 1.0 xcampbe96 -0.25 cpbe96 1.0 srhfexch 0.25
 cam 0.33 cam_alpha 0.0 cam_beta 1.0
 iterations 100
 direct
end
task dft energy
================================================================================

         Total DFT energy =    -76.349820762287
         Total DFT energy =    -76.307189267032
         Total DFT energy =    -76.387664094210
         Total DFT energy =    -76.389249754091
         Total DFT energy =    -76.389275393347
         Total DFT energy =    -76.389275405705
         Total DFT energy =      -76.389275405705

 Vector    7  Occ=0.000000D+00  E= 2.227642D-02  Symmetry=b1

 Vector    8  Occ=0.000000D+00  E= 9.446269D-02  Symmetry=a1

 Vector    9  Occ=0.000000D+00  E= 1.118468D-01  Symmetry=b2

 Vector   10  Occ=0.000000D+00  E= 1.252182D-01  Symmetry=a1

 Vector   11  Occ=0.000000D+00  E= 1.449706D-01  Symmetry=b1

 Vector   12  Occ=0.000000D+00  E= 1.716755D-01  Symmetry=b1

 Vector   13  Occ=0.000000D+00  E= 2.143824D-01  Symmetry=a1

 Vector   14  Occ=0.000000D+00  E= 2.667788D-01  Symmetry=a2

 Vector   15  Occ=0.000000D+00  E= 2.795721D-01  Symmetry=a1

 Vector   16  Occ=0.000000D+00  E= 3.095164D-01  Symmetry=b2

 Vector   17  Occ=0.000000D+00  E= 4.305346D-01  Symmetry=b1

 Vector   18  Occ=0.000000D+00  E= 4.604070D-01  Symmetry=a1

 Vector   19  Occ=0.000000D+00  E= 5.147830D-01  Symmetry=b1

 Vector   20  Occ=0.000000D+00  E= 6.089822D-01  Symmetry=b1

 Vector   21  Occ=0.000000D+00  E= 7.030284D-01  Symmetry=a1

 Vector   22  Occ=0.000000D+00  E= 8.854171D-01  Symmetry=b2

 Vector   23  Occ=0.000000D+00  E= 8.939774D-01  Symmetry=a1

 Vector   24  Occ=0.000000D+00  E= 9.330891D-01  Symmetry=a2

 Vector   25  Occ=0.000000D+00  E= 1.006267D+00  Symmetry=a1

 Vector   26  Occ=0.000000D+00  E= 1.062627D+00  Symmetry=a1

 Vector   27  Occ=0.000000D+00  E= 1.180519D+00  Symmetry=b2

 Vector   28  Occ=0.000000D+00  E= 1.207690D+00  Symmetry=b1

 Vector   29  Occ=0.000000D+00  E= 1.716671D+00  Symmetry=b1

 Vector   30  Occ=0.000000D+00  E= 1.718717D+00  Symmetry=a1

 Vector   31  Occ=0.000000D+00  E= 1.730986D+00  Symmetry=a2

 Vector   32  Occ=0.000000D+00  E= 1.825039D+00  Symmetry=b2

 Vector   33  Occ=0.000000D+00  E= 2.128910D+00  Symmetry=a1

 Vector   34  Occ=0.000000D+00  E= 2.130687D+00  Symmetry=b1

 Vector   35  Occ=0.000000D+00  E= 2.386078D+00  Symmetry=b1

 Vector   36  Occ=0.000000D+00  E= 2.515333D+00  Symmetry=a1

 Vector   37  Occ=0.000000D+00  E= 3.261861D+00  Symmetry=b2

 Vector   38  Occ=0.000000D+00  E= 3.275992D+00  Symmetry=a1

 Vector   39  Occ=0.000000D+00  E= 3.289286D+00  Symmetry=a2

 Vector   40  Occ=0.000000D+00  E= 3.513820D+00  Symmetry=a1

 Vector   41  Occ=0.000000D+00  E= 3.869427D+00  Symmetry=b1

 Vector   42  Occ=0.000000D+00  E= 4.200697D+00  Symmetry=a1

 Vector   43  Occ=0.000000D+00  E= 8.996343D+00  Symmetry=a1

 Output coordinates in angstroms (scale by  1.889725989 to convert to a.u.)

  No.       Tag          Charge          X              Y              Z
 ---- ---------------- ---------- -------------- -------------- --------------
    1 O                    8.0000     0.00000000     0.00000000     0.11726921
    2 H                    1.0000     0.75698224     0.00000000    -0.46907685
    3 H                    1.0000    -0.75698224     0.00000000    -0.46907685

         Total DFT energy =    -76.389275407320
         Total DFT energy =    -76.389275407317
         Total DFT energy =      -76.389275407317

                       DFT Final Molecular Orbital Analysis
                       ------------------------------------

 Vector    1  Occ=2.000000D+00  E=-1.919018D+01  Symmetry=a1

 Vector    2  Occ=2.000000D+00  E=-1.003279D+00  Symmetry=a1

 Vector    3  Occ=2.000000D+00  E=-5.127921D-01  Symmetry=b1

 Vector    4  Occ=2.000000D+00  E=-3.716930D-01  Symmetry=a1

 Vector    5  Occ=2.000000D+00  E=-2.930602D-01  Symmetry=b2

 Vector    6  Occ=0.000000D+00  E=-2.920193D-02  Symmetry=a1

 Vector    7  Occ=0.000000D+00  E= 2.227633D-02  Symmetry=b1

 Vector    8  Occ=0.000000D+00  E= 9.446256D-02  Symmetry=a1

 Vector    9  Occ=0.000000D+00  E= 1.118467D-01  Symmetry=b2

 Vector   10  Occ=0.000000D+00  E= 1.252181D-01  Symmetry=a1

 Vector   11  Occ=0.000000D+00  E= 1.449705D-01  Symmetry=b1

 Vector   12  Occ=0.000000D+00  E= 1.716754D-01  Symmetry=b1

 Vector   13  Occ=0.000000D+00  E= 2.143822D-01  Symmetry=a1

 Vector   14  Occ=0.000000D+00  E= 2.667786D-01  Symmetry=a2

 Vector   15  Occ=0.000000D+00  E= 2.795719D-01  Symmetry=a1

 Vector   16  Occ=0.000000D+00  E= 3.095162D-01  Symmetry=b2

 Vector   17  Occ=0.000000D+00  E= 4.305344D-01  Symmetry=b1

 Vector   18  Occ=0.000000D+00  E= 4.604068D-01  Symmetry=a1

 Vector   19  Occ=0.000000D+00  E= 5.147828D-01  Symmetry=b1

 Vector   20  Occ=0.000000D+00  E= 6.089819D-01  Symmetry=b1

 Vector   21  Occ=0.000000D+00  E= 7.030280D-01  Symmetry=a1

 Vector   22  Occ=0.000000D+00  E= 8.854169D-01  Symmetry=b2

 Vector   23  Occ=0.000000D+00  E= 8.939772D-01  Symmetry=a1

 Vector   24  Occ=0.000000D+00  E= 9.330888D-01  Symmetry=a2

 Vector   25  Occ=0.000000D+00  E= 1.006267D+00  Symmetry=a1

 Vector   26  Occ=0.000000D+00  E= 1.062627D+00  Symmetry=a1

 Vector   27  Occ=0.000000D+00  E= 1.180519D+00  Symmetry=b2

 Vector   28  Occ=0.000000D+00  E= 1.207690D+00  Symmetry=b1

 Vector   29  Occ=0.000000D+00  E= 1.716670D+00  Symmetry=b1

 Vector   30  Occ=0.000000D+00  E= 1.718717D+00  Symmetry=a1

 Vector   31  Occ=0.000000D+00  E= 1.730985D+00  Symmetry=a2

 Vector   32  Occ=0.000000D+00  E= 1.825039D+00  Symmetry=b2

 Vector   33  Occ=0.000000D+00  E= 2.128909D+00  Symmetry=a1

 Vector   34  Occ=0.000000D+00  E= 2.130686D+00  Symmetry=b1

 Vector   35  Occ=0.000000D+00  E= 2.386078D+00  Symmetry=b1

 Vector   36  Occ=0.000000D+00  E= 2.515332D+00  Symmetry=a1

 Vector   37  Occ=0.000000D+00  E= 3.261861D+00  Symmetry=b2

 Vector   38  Occ=0.000000D+00  E= 3.275992D+00  Symmetry=a1

 Vector   39  Occ=0.000000D+00  E= 3.289286D+00  Symmetry=a2

 Vector   40  Occ=0.000000D+00  E= 3.513820D+00  Symmetry=a1

 Vector   41  Occ=0.000000D+00  E= 3.869427D+00  Symmetry=b1

 Vector   42  Occ=0.000000D+00  E= 4.200698D+00  Symmetry=a1

 Vector   43  Occ=0.000000D+00  E= 8.996344D+00  Symmetry=a1

     Multipole analysis of the density
     ---------------------------------

     L   x y z        total         alpha         beta         nuclear
     -   - - -        -----         -----         ----         -------
     0   0 0 0     -0.000000     -5.000000     -5.000000     10.000000

     1   1 0 0      0.000000      0.000000      0.000000      0.000000
     1   0 1 0      0.000000      0.000000      0.000000      0.000000
     1   0 0 1     -0.723626     -0.361813     -0.361813      0.000000

     2   2 0 0     -3.341502     -3.717050     -3.717050      4.092598
     2   1 1 0      0.000000      0.000000      0.000000      0.000000
     2   1 0 1     -0.000000     -0.000000     -0.000000      0.000000
     2   0 2 0     -5.760339     -2.880169     -2.880169      0.000000
     2   0 1 1      0.000000      0.000000      0.000000      0.000000

 Total times  cpu:        1.9s     wall:        6.7s
