============================== echo of input deck ==============================
# Taken from http://www.nwchem-sw.org/index.php/Release66:Density_Functional_Theory_for_Molecules
# Functional example
echo
print high    # For MO visualization
start h2o-camb3lyp
geometry units angstrom
   O      0.00000000     0.00000000     0.11726921
   H      0.75698224     0.00000000    -0.46907685
   H     -0.75698224     0.00000000    -0.46907685
end
basis spherical
 * library aug-cc-pvdz
end
dft
 xc xcamb88 1.00 lyp 0.81 vwn_5 0.19 hfexch 1.00
 cam 0.33 cam_alpha 0.19 cam_beta 0.46
 direct
 iterations 100
 #print "final vectors analysis"    # Alternative to above for MO vizualization
end
task dft energy
================================================================================

 Output coordinates in angstroms (scale by  1.889725989 to convert to a.u.)

  No.       Tag          Charge          X              Y              Z
 ---- ---------------- ---------- -------------- -------------- --------------
    1 O                    8.0000     0.00000000     0.00000000     0.11726921
    2 H                    1.0000     0.75698224     0.00000000    -0.46907685
    3 H                    1.0000    -0.75698224     0.00000000    -0.46907685

         Total DFT energy =    -76.378463518271
         Total DFT energy =    -76.379722571922
         Total DFT energy =    -76.415747387493
         Total DFT energy =    -76.416262022339
         Total DFT energy =    -76.416271175549
         Total DFT energy =    -76.416271419121
         Total DFT energy =      -76.416271419121

                       DFT Final Molecular Orbital Analysis
                       ------------------------------------

 Vector    1  Occ=2.000000D+00  E=-1.923253D+01  Symmetry=a1

 Vector    2  Occ=2.000000D+00  E=-1.103974D+00  Symmetry=a1

 Vector    3  Occ=2.000000D+00  E=-6.096250D-01  Symmetry=b1

 Vector    4  Occ=2.000000D+00  E=-4.682979D-01  Symmetry=a1

 Vector    5  Occ=2.000000D+00  E=-3.922863D-01  Symmetry=b2

 Vector    6  Occ=0.000000D+00  E= 3.092446D-03  Symmetry=a1

 Vector    7  Occ=0.000000D+00  E= 4.022167D-02  Symmetry=b1

 Vector    8  Occ=0.000000D+00  E= 1.289002D-01  Symmetry=a1

 Vector    9  Occ=0.000000D+00  E= 1.512374D-01  Symmetry=b2

 Vector   10  Occ=0.000000D+00  E= 1.645268D-01  Symmetry=a1

 Vector   11  Occ=0.000000D+00  E= 1.850827D-01  Symmetry=b1

 Vector   12  Occ=0.000000D+00  E= 2.146403D-01  Symmetry=b1

 Vector   13  Occ=0.000000D+00  E= 2.626930D-01  Symmetry=a1

 Vector   14  Occ=0.000000D+00  E= 3.163960D-01  Symmetry=a2

 Vector   15  Occ=0.000000D+00  E= 3.306017D-01  Symmetry=a1

 Vector   16  Occ=0.000000D+00  E= 3.603059D-01  Symmetry=b2

 Vector   17  Occ=0.000000D+00  E= 4.752099D-01  Symmetry=b1

 Vector   18  Occ=0.000000D+00  E= 5.478238D-01  Symmetry=a1

 Vector   19  Occ=0.000000D+00  E= 5.676628D-01  Symmetry=b1

 Vector   20  Occ=0.000000D+00  E= 6.773916D-01  Symmetry=b1

 Vector   21  Occ=0.000000D+00  E= 7.956306D-01  Symmetry=a1

 Vector   22  Occ=0.000000D+00  E= 9.626854D-01  Symmetry=b2

 Vector   23  Occ=0.000000D+00  E= 9.758164D-01  Symmetry=a1

 Vector   24  Occ=0.000000D+00  E= 1.011234D+00  Symmetry=a2

 Vector   25  Occ=0.000000D+00  E= 1.125707D+00  Symmetry=a1

 Vector   26  Occ=0.000000D+00  E= 1.255406D+00  Symmetry=b2

 Vector   27  Occ=0.000000D+00  E= 1.281297D+00  Symmetry=b1

 Vector   28  Occ=0.000000D+00  E= 1.375494D+00  Symmetry=a1

 Vector   29  Occ=0.000000D+00  E= 1.805713D+00  Symmetry=b1

 Vector   30  Occ=0.000000D+00  E= 1.821803D+00  Symmetry=a2

 Vector   31  Occ=0.000000D+00  E= 1.916270D+00  Symmetry=b2

 Vector   32  Occ=0.000000D+00  E= 2.178354D+00  Symmetry=a1

 Vector   33  Occ=0.000000D+00  E= 2.215286D+00  Symmetry=b1

 Vector   34  Occ=0.000000D+00  E= 2.359966D+00  Symmetry=a1

 Vector   35  Occ=0.000000D+00  E= 2.471253D+00  Symmetry=b1

 Vector   36  Occ=0.000000D+00  E= 2.716559D+00  Symmetry=a1

 Vector   37  Occ=0.000000D+00  E= 3.361833D+00  Symmetry=b2

 Vector   38  Occ=0.000000D+00  E= 3.375768D+00  Symmetry=a1

 Vector   39  Occ=0.000000D+00  E= 3.388675D+00  Symmetry=a2

 Vector   40  Occ=0.000000D+00  E= 3.697857D+00  Symmetry=a1

 Vector   41  Occ=0.000000D+00  E= 3.963339D+00  Symmetry=b1

     Multipole analysis of the density
     ---------------------------------

     L   x y z        total         alpha         beta         nuclear
     -   - - -        -----         -----         ----         -------
     0   0 0 0     -0.000000     -5.000000     -5.000000     10.000000

     1   1 0 0      0.000000      0.000000      0.000000      0.000000
     1   0 1 0     -0.000000     -0.000000     -0.000000      0.000000
     1   0 0 1     -0.744440     -0.372220     -0.372220      0.000000

     2   2 0 0     -3.379074     -3.735836     -3.735836      4.092598
     2   1 1 0     -0.000000     -0.000000     -0.000000      0.000000
     2   1 0 1     -0.000000     -0.000000     -0.000000      0.000000
     2   0 2 0     -5.815539     -2.907770     -2.907770      0.000000
     2   0 1 1      0.000000      0.000000      0.000000      0.000000

 Total times  cpu:        2.2s     wall:        4.6s
