============================== echo of input deck ==============================
# Taken from http://www.nwchem-sw.org/index.php/Release66:Density_Functional_Theory_for_Molecules
# No SCF
echo
start h2o-noscf
print high
geometry units angstrom
  O      0.00000000     0.00000000     0.11726921
  H      0.75698224     0.00000000    -0.46907685
  H     -0.75698224     0.00000000    -0.46907685
end
basis spherical
 * library aug-cc-pvdz
end
dft
 xc hfexch
 vectors output hf.movecs
end
task dft energy
dft
 xc b3lyp
 vectors input hf.movecs
 noscf
end
task dft energy
================================================================================

         Total DFT energy =    -76.006643400390
         Total DFT energy =    -76.031339455554
         Total DFT energy =    -76.041217737966
         Total DFT energy =    -76.041394252790
         Total DFT energy =    -76.041407849690
         Total DFT energy =    -76.041408588630
         Total DFT energy =      -76.041408588630

 Vector    3  Occ=2.000000D+00  E=-7.190901D-01  Symmetry=b1

 Vector    4  Occ=2.000000D+00  E=-5.856616D-01  Symmetry=a1

 Vector    5  Occ=2.000000D+00  E=-5.094259D-01  Symmetry=b2

 Vector    6  Occ=0.000000D+00  E= 3.542992D-02  Symmetry=a1

 Vector    7  Occ=0.000000D+00  E= 5.792856D-02  Symmetry=b1

 Vector    8  Occ=0.000000D+00  E= 1.739757D-01  Symmetry=a1

 Vector    9  Occ=0.000000D+00  E= 1.966933D-01  Symmetry=b2

 Vector   10  Occ=0.000000D+00  E= 2.226393D-01  Symmetry=a1

 Vector   11  Occ=0.000000D+00  E= 2.314512D-01  Symmetry=b1

 Vector   12  Occ=0.000000D+00  E= 2.907118D-01  Symmetry=b1

 Vector   13  Occ=0.000000D+00  E= 3.314772D-01  Symmetry=a1

 Vector   14  Occ=0.000000D+00  E= 3.858021D-01  Symmetry=a2

 Vector   15  Occ=0.000000D+00  E= 4.040023D-01  Symmetry=a1

 Vector   16  Occ=0.000000D+00  E= 4.337371D-01  Symmetry=b2

 Vector   17  Occ=0.000000D+00  E= 5.392038D-01  Symmetry=b1

 Vector   18  Occ=0.000000D+00  E= 6.485916D-01  Symmetry=a1

 Vector   19  Occ=0.000000D+00  E= 6.582197D-01  Symmetry=b1

 Vector   20  Occ=0.000000D+00  E= 8.117084D-01  Symmetry=b1

 Vector   21  Occ=0.000000D+00  E= 9.298466D-01  Symmetry=a1

 Vector   22  Occ=0.000000D+00  E= 1.100992D+00  Symmetry=b2

 Vector   23  Occ=0.000000D+00  E= 1.115297D+00  Symmetry=a1

 Vector   24  Occ=0.000000D+00  E= 1.148874D+00  Symmetry=a2

 Vector   25  Occ=0.000000D+00  E= 1.307701D+00  Symmetry=a1

 Vector   26  Occ=0.000000D+00  E= 1.466973D+00  Symmetry=b1

 Vector   27  Occ=0.000000D+00  E= 1.483092D+00  Symmetry=b2

 Vector   28  Occ=0.000000D+00  E= 1.583766D+00  Symmetry=a1

 Vector   29  Occ=0.000000D+00  E= 2.003584D+00  Symmetry=b1

 Vector   30  Occ=0.000000D+00  E= 2.011390D+00  Symmetry=a2

 Vector   31  Occ=0.000000D+00  E= 2.109052D+00  Symmetry=b2

 Vector   32  Occ=0.000000D+00  E= 2.367988D+00  Symmetry=a1

 Vector   33  Occ=0.000000D+00  E= 2.482159D+00  Symmetry=b1

 Vector   34  Occ=0.000000D+00  E= 2.627872D+00  Symmetry=a1

 Vector   35  Occ=0.000000D+00  E= 2.715243D+00  Symmetry=b1

 Vector   36  Occ=0.000000D+00  E= 2.966743D+00  Symmetry=a1

 Vector   37  Occ=0.000000D+00  E= 3.673019D+00  Symmetry=b2

 Vector   38  Occ=0.000000D+00  E= 3.690403D+00  Symmetry=a1

 Vector   39  Occ=0.000000D+00  E= 3.703017D+00  Symmetry=a2

 Vector   40  Occ=0.000000D+00  E= 4.026843D+00  Symmetry=a1

 Vector   41  Occ=0.000000D+00  E= 4.308776D+00  Symmetry=b1

 Output coordinates in angstroms (scale by  1.889725989 to convert to a.u.)

  No.       Tag          Charge          X              Y              Z
 ---- ---------------- ---------- -------------- -------------- --------------
    1 O                    8.0000     0.00000000     0.00000000     0.11726921
    2 H                    1.0000     0.75698224     0.00000000    -0.46907685
    3 H                    1.0000    -0.75698224     0.00000000    -0.46907685

         Total DFT energy =      -76.439299459373

                       DFT Final Molecular Orbital Analysis
                       ------------------------------------

 Vector    1  Occ=2.000000D+00  E=-2.057733D+01  Symmetry=a1

 Vector    2  Occ=2.000000D+00  E=-1.356528D+00  Symmetry=a1

 Vector    3  Occ=2.000000D+00  E=-7.190901D-01  Symmetry=b1

 Vector    4  Occ=2.000000D+00  E=-5.856616D-01  Symmetry=a1

 Vector    5  Occ=2.000000D+00  E=-5.094259D-01  Symmetry=b2

 Vector    6  Occ=0.000000D+00  E= 3.542992D-02  Symmetry=a1

 Vector    7  Occ=0.000000D+00  E= 5.792856D-02  Symmetry=b1

 Vector    8  Occ=0.000000D+00  E= 1.739757D-01  Symmetry=a1

 Vector    9  Occ=0.000000D+00  E= 1.966933D-01  Symmetry=b2

 Vector   10  Occ=0.000000D+00  E= 2.226393D-01  Symmetry=a1

 Vector   11  Occ=0.000000D+00  E= 2.314512D-01  Symmetry=b1

 Vector   12  Occ=0.000000D+00  E= 2.907118D-01  Symmetry=b1

 Vector   13  Occ=0.000000D+00  E= 3.314772D-01  Symmetry=a1

 Vector   14  Occ=0.000000D+00  E= 3.858021D-01  Symmetry=a2

 Vector   15  Occ=0.000000D+00  E= 4.040023D-01  Symmetry=a1

 Vector   16  Occ=0.000000D+00  E= 4.337371D-01  Symmetry=b2

 Vector   17  Occ=0.000000D+00  E= 5.392038D-01  Symmetry=b1

 Vector   18  Occ=0.000000D+00  E= 6.485916D-01  Symmetry=a1

 Vector   19  Occ=0.000000D+00  E= 6.582197D-01  Symmetry=b1

 Vector   20  Occ=0.000000D+00  E= 8.117084D-01  Symmetry=b1

 Vector   21  Occ=0.000000D+00  E= 9.298466D-01  Symmetry=a1

 Vector   22  Occ=0.000000D+00  E= 1.100992D+00  Symmetry=b2

 Vector   23  Occ=0.000000D+00  E= 1.115297D+00  Symmetry=a1

 Vector   24  Occ=0.000000D+00  E= 1.148874D+00  Symmetry=a2

 Vector   25  Occ=0.000000D+00  E= 1.307701D+00  Symmetry=a1

 Vector   26  Occ=0.000000D+00  E= 1.466973D+00  Symmetry=b1

 Vector   27  Occ=0.000000D+00  E= 1.483092D+00  Symmetry=b2

 Vector   28  Occ=0.000000D+00  E= 1.583766D+00  Symmetry=a1

 Vector   29  Occ=0.000000D+00  E= 2.003584D+00  Symmetry=b1

 Vector   30  Occ=0.000000D+00  E= 2.011390D+00  Symmetry=a2

 Vector   31  Occ=0.000000D+00  E= 2.109052D+00  Symmetry=b2

 Vector   32  Occ=0.000000D+00  E= 2.367988D+00  Symmetry=a1

 Vector   33  Occ=0.000000D+00  E= 2.482159D+00  Symmetry=b1

 Vector   34  Occ=0.000000D+00  E= 2.627872D+00  Symmetry=a1

 Vector   35  Occ=0.000000D+00  E= 2.715243D+00  Symmetry=b1

 Vector   36  Occ=0.000000D+00  E= 2.966743D+00  Symmetry=a1

 Vector   37  Occ=0.000000D+00  E= 3.673019D+00  Symmetry=b2

 Vector   38  Occ=0.000000D+00  E= 3.690403D+00  Symmetry=a1

 Vector   39  Occ=0.000000D+00  E= 3.703017D+00  Symmetry=a2

 Vector   40  Occ=0.000000D+00  E= 4.026843D+00  Symmetry=a1

 Vector   41  Occ=0.000000D+00  E= 4.308776D+00  Symmetry=b1

     Multipole analysis of the density
     ---------------------------------

     L   x y z        total         alpha         beta         nuclear
     -   - - -        -----         -----         ----         -------
     0   0 0 0     -0.000000     -5.000000     -5.000000     10.000000

     1   1 0 0      0.000000      0.000000      0.000000      0.000000
     1   0 1 0      0.000000      0.000000      0.000000      0.000000
     1   0 0 1     -0.786648     -0.393324     -0.393324      0.000000

     2   2 0 0     -3.181818     -3.637208     -3.637208      4.092598
     2   1 1 0      0.000000      0.000000      0.000000      0.000000
     2   1 0 1      0.000000      0.000000      0.000000      0.000000
     2   0 2 0     -5.642919     -2.821460     -2.821460      0.000000
     2   0 1 1     -0.000000     -0.000000     -0.000000      0.000000

 Total times  cpu:        3.6s     wall:        8.0s
