============================== echo of input deck ==============================
# Taken from http://www.nwchem-sw.org/index.php/Release66:Density_Functional_Theory_for_Molecules
# Another functional example
echo
start h2o-hse
print high
geometry units angstrom
O      0.00000000     0.00000000     0.11726921
H      0.75698224     0.00000000    -0.46907685
H     -0.75698224     0.00000000    -0.46907685
end
basis spherical
 * library aug-cc-pvdz
end
dft
 xc hse03
 iterations 100
 direct
 end
task dft energy
#or alternatively
dft
 xc xpbe96 1.0 xcampbe96 -0.25 cpbe96 1.0 srhfexch 0.25
 cam 0.33 cam_alpha 0.0 cam_beta 1.0
 iterations 100
 direct
end
task dft energy
================================================================================

         Total DFT energy =    -76.349053011333
         Total DFT energy =    -76.306946976944
         Total DFT energy =    -76.386769467445
         Total DFT energy =    -76.388010529533
         Total DFT energy =    -76.388028395565
         Total DFT energy =    -76.388028413010
         Total DFT energy =      -76.388028413010

 Vector    3  Occ=2.000000D+00  E=-5.131206D-01  Symmetry=b1

 Vector    4  Occ=2.000000D+00  E=-3.720382D-01  Symmetry=a1

 Vector    5  Occ=2.000000D+00  E=-2.933974D-01  Symmetry=b2

 Vector    6  Occ=0.000000D+00  E=-2.916630D-02  Symmetry=a1

 Vector    7  Occ=0.000000D+00  E= 2.223504D-02  Symmetry=b1

 Vector    8  Occ=0.000000D+00  E= 9.639698D-02  Symmetry=a1

 Vector    9  Occ=0.000000D+00  E= 1.118800D-01  Symmetry=b2

 Vector   10  Occ=0.000000D+00  E= 1.254075D-01  Symmetry=a1

 Vector   11  Occ=0.000000D+00  E= 1.448999D-01  Symmetry=b1

 Vector   12  Occ=0.000000D+00  E= 1.717655D-01  Symmetry=b1

 Vector   13  Occ=0.000000D+00  E= 2.144041D-01  Symmetry=a1

 Vector   14  Occ=0.000000D+00  E= 2.668160D-01  Symmetry=a2

 Vector   15  Occ=0.000000D+00  E= 2.814704D-01  Symmetry=a1

 Vector   16  Occ=0.000000D+00  E= 3.095581D-01  Symmetry=b2

 Vector   17  Occ=0.000000D+00  E= 4.305426D-01  Symmetry=b1

 Vector   18  Occ=0.000000D+00  E= 4.930711D-01  Symmetry=a1

 Vector   19  Occ=0.000000D+00  E= 5.145795D-01  Symmetry=b1

 Vector   20  Occ=0.000000D+00  E= 6.089279D-01  Symmetry=b1

 Vector   21  Occ=0.000000D+00  E= 7.226533D-01  Symmetry=a1

 Vector   22  Occ=0.000000D+00  E= 8.853168D-01  Symmetry=b2

 Vector   23  Occ=0.000000D+00  E= 8.979279D-01  Symmetry=a1

 Vector   24  Occ=0.000000D+00  E= 9.329564D-01  Symmetry=a2

 Vector   25  Occ=0.000000D+00  E= 1.049993D+00  Symmetry=a1

 Vector   26  Occ=0.000000D+00  E= 1.180265D+00  Symmetry=b2

 Vector   27  Occ=0.000000D+00  E= 1.207578D+00  Symmetry=b1

 Vector   28  Occ=0.000000D+00  E= 1.296513D+00  Symmetry=a1

 Vector   29  Occ=0.000000D+00  E= 1.716496D+00  Symmetry=b1

 Vector   30  Occ=0.000000D+00  E= 1.730860D+00  Symmetry=a2

 Vector   31  Occ=0.000000D+00  E= 1.824930D+00  Symmetry=b2

 Vector   32  Occ=0.000000D+00  E= 2.092607D+00  Symmetry=a1

 Vector   33  Occ=0.000000D+00  E= 2.130520D+00  Symmetry=b1

 Vector   34  Occ=0.000000D+00  E= 2.274010D+00  Symmetry=a1

 Vector   35  Occ=0.000000D+00  E= 2.385956D+00  Symmetry=b1

 Vector   36  Occ=0.000000D+00  E= 2.630712D+00  Symmetry=a1

 Vector   37  Occ=0.000000D+00  E= 3.261472D+00  Symmetry=b2

 Vector   38  Occ=0.000000D+00  E= 3.275585D+00  Symmetry=a1

 Vector   39  Occ=0.000000D+00  E= 3.288857D+00  Symmetry=a2

 Vector   40  Occ=0.000000D+00  E= 3.601872D+00  Symmetry=a1

 Vector   41  Occ=0.000000D+00  E= 3.869019D+00  Symmetry=b1

 Output coordinates in angstroms (scale by  1.889725989 to convert to a.u.)

  No.       Tag          Charge          X              Y              Z
 ---- ---------------- ---------- -------------- -------------- --------------
    1 O                    8.0000     0.00000000     0.00000000     0.11726921
    2 H                    1.0000     0.75698224     0.00000000    -0.46907685
    3 H                    1.0000    -0.75698224     0.00000000    -0.46907685

         Total DFT energy =    -76.388028413858
         Total DFT energy =    -76.388028413858
         Total DFT energy =      -76.388028413858

                       DFT Final Molecular Orbital Analysis
                       ------------------------------------

 Vector    1  Occ=2.000000D+00  E=-1.918943D+01  Symmetry=a1

 Vector    2  Occ=2.000000D+00  E=-1.003108D+00  Symmetry=a1

 Vector    3  Occ=2.000000D+00  E=-5.131207D-01  Symmetry=b1

 Vector    4  Occ=2.000000D+00  E=-3.720382D-01  Symmetry=a1

 Vector    5  Occ=2.000000D+00  E=-2.933974D-01  Symmetry=b2

 Vector    6  Occ=0.000000D+00  E=-2.916637D-02  Symmetry=a1

 Vector    7  Occ=0.000000D+00  E= 2.223507D-02  Symmetry=b1

 Vector    8  Occ=0.000000D+00  E= 9.639696D-02  Symmetry=a1

 Vector    9  Occ=0.000000D+00  E= 1.118800D-01  Symmetry=b2

 Vector   10  Occ=0.000000D+00  E= 1.254075D-01  Symmetry=a1

 Vector   11  Occ=0.000000D+00  E= 1.448998D-01  Symmetry=b1

 Vector   12  Occ=0.000000D+00  E= 1.717655D-01  Symmetry=b1

 Vector   13  Occ=0.000000D+00  E= 2.144040D-01  Symmetry=a1

 Vector   14  Occ=0.000000D+00  E= 2.668159D-01  Symmetry=a2

 Vector   15  Occ=0.000000D+00  E= 2.814703D-01  Symmetry=a1

 Vector   16  Occ=0.000000D+00  E= 3.095579D-01  Symmetry=b2

 Vector   17  Occ=0.000000D+00  E= 4.305425D-01  Symmetry=b1

 Vector   18  Occ=0.000000D+00  E= 4.930709D-01  Symmetry=a1

 Vector   19  Occ=0.000000D+00  E= 5.145794D-01  Symmetry=b1

 Vector   20  Occ=0.000000D+00  E= 6.089277D-01  Symmetry=b1

 Vector   21  Occ=0.000000D+00  E= 7.226531D-01  Symmetry=a1

 Vector   22  Occ=0.000000D+00  E= 8.853166D-01  Symmetry=b2

 Vector   23  Occ=0.000000D+00  E= 8.979278D-01  Symmetry=a1

 Vector   24  Occ=0.000000D+00  E= 9.329563D-01  Symmetry=a2

 Vector   25  Occ=0.000000D+00  E= 1.049993D+00  Symmetry=a1

 Vector   26  Occ=0.000000D+00  E= 1.180265D+00  Symmetry=b2

 Vector   27  Occ=0.000000D+00  E= 1.207578D+00  Symmetry=b1

 Vector   28  Occ=0.000000D+00  E= 1.296513D+00  Symmetry=a1

 Vector   29  Occ=0.000000D+00  E= 1.716496D+00  Symmetry=b1

 Vector   30  Occ=0.000000D+00  E= 1.730859D+00  Symmetry=a2

 Vector   31  Occ=0.000000D+00  E= 1.824930D+00  Symmetry=b2

 Vector   32  Occ=0.000000D+00  E= 2.092607D+00  Symmetry=a1

 Vector   33  Occ=0.000000D+00  E= 2.130520D+00  Symmetry=b1

 Vector   34  Occ=0.000000D+00  E= 2.274010D+00  Symmetry=a1

 Vector   35  Occ=0.000000D+00  E= 2.385956D+00  Symmetry=b1

 Vector   36  Occ=0.000000D+00  E= 2.630712D+00  Symmetry=a1

 Vector   37  Occ=0.000000D+00  E= 3.261472D+00  Symmetry=b2

 Vector   38  Occ=0.000000D+00  E= 3.275585D+00  Symmetry=a1

 Vector   39  Occ=0.000000D+00  E= 3.288857D+00  Symmetry=a2

 Vector   40  Occ=0.000000D+00  E= 3.601872D+00  Symmetry=a1

 Vector   41  Occ=0.000000D+00  E= 3.869019D+00  Symmetry=b1

     Multipole analysis of the density
     ---------------------------------

     L   x y z        total         alpha         beta         nuclear
     -   - - -        -----         -----         ----         -------
     0   0 0 0     -0.000000     -5.000000     -5.000000     10.000000

     1   1 0 0      0.000000      0.000000      0.000000      0.000000
     1   0 1 0     -0.000000     -0.000000     -0.000000      0.000000
     1   0 0 1     -0.724551     -0.362275     -0.362275      0.000000

     2   2 0 0     -3.339762     -3.716180     -3.716180      4.092598
     2   1 1 0      0.000000      0.000000      0.000000      0.000000
     2   1 0 1      0.000000      0.000000      0.000000      0.000000
     2   0 2 0     -5.758566     -2.879283     -2.879283      0.000000
     2   0 1 1     -0.000000     -0.000000     -0.000000      0.000000

 Total times  cpu:        3.2s     wall:        7.3s
