============================== echo of input deck ==============================
# Taken from http://www.nwchem-sw.org/index.php/Release66:Density_Functional_Theory_for_Molecules
# Controlling occupations
echo
start h2o_core_hole
print high
memory 1000 mb
geometry units au
 O 0       0        0
 H 0       1.430   -1.107
 H 0      -1.430   -1.107
end
basis
 O library 6-31g*
 H library 6-31g*
end
occup
 6 6 # core-hole in beta
 1.0 0.0
 1.0 1.0
 1.0 1.0
 1.0 1.0
 1.0 1.0
 0.0 0.0
end
dft
 odft
 mult 1
 xc beckehandh
end
task dft
================================================================================

 Output coordinates in a.u. (scale by  1.000000000 to convert to a.u.)

  No.       Tag          Charge          X              Y              Z
 ---- ---------------- ---------- -------------- -------------- --------------
    1 O                    8.0000     0.00000000     0.00000000     0.22140000
    2 H                    1.0000    -1.43000000     0.00000000    -0.88560000
    3 H                    1.0000     1.43000000     0.00000000    -0.88560000

         Total DFT energy =    -75.889163486539
         Total DFT energy =    -55.194931890537
         Total DFT energy =    -55.613162354136
         Total DFT energy =    -55.787148457996
         Total DFT energy =    -56.026578728911
         Total DFT energy =    -56.108017264331
         Total DFT energy =    -56.108436654483
         Total DFT energy =    -56.108445255311
         Total DFT energy =    -56.108445621035
         Total DFT energy =      -56.108445621035

                    DFT Final Alpha Molecular Orbital Analysis
                    ------------------------------------------

 Vector    1  Occ=1.000000D+00  E=-2.302306D+01  Symmetry=a1

 Vector    2  Occ=1.000000D+00  E=-1.761750D+00  Symmetry=a1

 Vector    3  Occ=1.000000D+00  E=-1.185467D+00  Symmetry=b1

 Vector    4  Occ=1.000000D+00  E=-1.068836D+00  Symmetry=a1

 Vector    5  Occ=1.000000D+00  E=-1.011703D+00  Symmetry=b2

 Vector    6  Occ=0.000000D+00  E=-2.456735D-01  Symmetry=a1

 Vector    7  Occ=0.000000D+00  E=-1.727278D-01  Symmetry=b1

 Vector    8  Occ=0.000000D+00  E= 4.338362D-01  Symmetry=b2

 Vector    9  Occ=0.000000D+00  E= 4.342198D-01  Symmetry=a1

 Vector   10  Occ=0.000000D+00  E= 4.863660D-01  Symmetry=b1

 Vector   11  Occ=0.000000D+00  E= 5.805200D-01  Symmetry=a1

 Vector   12  Occ=0.000000D+00  E= 6.369093D-01  Symmetry=b1

 Vector   13  Occ=0.000000D+00  E= 8.606630D-01  Symmetry=a1

 Vector   14  Occ=0.000000D+00  E= 1.403964D+00  Symmetry=a1

 Vector   15  Occ=0.000000D+00  E= 1.416051D+00  Symmetry=a2

 Vector   16  Occ=0.000000D+00  E= 1.456704D+00  Symmetry=b2

 Vector   17  Occ=0.000000D+00  E= 1.987787D+00  Symmetry=a1

 Vector   18  Occ=0.000000D+00  E= 2.294988D+00  Symmetry=b1

 Vector   19  Occ=0.000000D+00  E= 3.011039D+00  Symmetry=a1

 Vector    1  Occ=0.000000D+00  E=-1.989436D+01  Symmetry=a1

 Vector    2  Occ=1.000000D+00  E=-1.685307D+00  Symmetry=a1

 Vector    3  Occ=1.000000D+00  E=-1.142354D+00  Symmetry=b1

 Vector    4  Occ=1.000000D+00  E=-1.013831D+00  Symmetry=a1

 Vector    5  Occ=1.000000D+00  E=-9.558057D-01  Symmetry=b2

 Vector    6  Occ=0.000000D+00  E=-2.324138D-01  Symmetry=a1

 Vector    7  Occ=0.000000D+00  E=-1.605959D-01  Symmetry=b1

 Vector    8  Occ=0.000000D+00  E= 4.676454D-01  Symmetry=a1

 Vector    9  Occ=0.000000D+00  E= 4.687704D-01  Symmetry=b2

 Vector   10  Occ=0.000000D+00  E= 4.818464D-01  Symmetry=b1

 Vector   11  Occ=0.000000D+00  E= 5.825846D-01  Symmetry=a1

 Vector   12  Occ=0.000000D+00  E= 6.704586D-01  Symmetry=b1

 Vector   13  Occ=0.000000D+00  E= 8.676627D-01  Symmetry=a1

 Vector   14  Occ=0.000000D+00  E= 1.402493D+00  Symmetry=a1

 Vector   15  Occ=0.000000D+00  E= 1.414690D+00  Symmetry=a2

 Vector   16  Occ=0.000000D+00  E= 1.454791D+00  Symmetry=b2

 Vector   17  Occ=0.000000D+00  E= 1.986537D+00  Symmetry=a1

 Vector   18  Occ=0.000000D+00  E= 2.295127D+00  Symmetry=b1

 Vector   19  Occ=0.000000D+00  E= 3.130892D+00  Symmetry=a1

     Multipole analysis of the density
     ---------------------------------

     L   x y z        total         alpha         beta         nuclear
     -   - - -        -----         -----         ----         -------
     0   0 0 0      1.000000     -5.000000     -4.000000     10.000000

     1   1 0 0     -0.000000     -0.000000     -0.000000      0.000000
     1   0 1 0     -0.000000     -0.000000     -0.000000      0.000000
     1   0 0 1     -1.085175     -0.680966     -0.404209      0.000000

     2   2 0 0     -0.949184     -2.409691     -2.629293      4.089800
     2   1 1 0     -0.000000      0.000000     -0.000000      0.000000
     2   1 0 1     -0.000000     -0.000000      0.000000      0.000000
     2   0 2 0     -3.895643     -1.882989     -2.012655      0.000000
     2   0 1 1     -0.000000      0.000000     -0.000000      0.000000

 Total times  cpu:        2.1s     wall:        5.5s
