============================== echo of input deck ==============================
echo
start h2o2_514.5_02.inp
title "h2o2 roa calculations at 514.5 nm, input generated by va with delta_type=2"
charge 0

geometry units angstrom nocenter noautoz noautosym nucleus point;symmetry c1
 O -8.059633  3.036281 -0.513162
 O -8.428613  2.125699  0.551660
 H -8.938960  3.227139 -0.899135
 H -8.123866  2.630400  1.333343
end

basis spherical
* library def2-TZVP
end

 set prop:newaoresp 1
 set aor:roadata T
 set cphf:maxsub 100
 set cphf:acc 1.0d-10
 set cphf:maxiter 100

property
    response 1   0.088558
    bdtensor
    convergence 1e-9
    damping 0.0037
    giao
end

dft
 direct
 mult 1
 xc becke88 lyp
 iterations 250
 tolerances tight
 grid xfine
 convergence nolevelshifting
 convergence energy 1e-8
 convergence gradient 1e-8

end

task dft gradient
task dft property
================================================================================

 Output coordinates in angstroms (scale by  1.889725989 to convert to a.u.)

  No.       Tag          Charge          X              Y              Z
 ---- ---------------- ---------- -------------- -------------- --------------
    1 O                    8.0000    -8.05963300     3.03628100    -0.51316200
    2 O                    8.0000    -8.42861300     2.12569900     0.55166000
    3 H                    1.0000    -8.93896000     3.22713900    -0.89913500
    4 H                    1.0000    -8.12386600     2.63040000     1.33334300

         Total DFT energy =     -151.600381972498

 Vector   69  Occ=0.000000D+00  E= 6.824639D+00

 Vector   70  Occ=0.000000D+00  E= 6.870544D+00

 Vector   71  Occ=0.000000D+00  E= 7.075425D+00

 Vector   72  Occ=0.000000D+00  E= 7.846310D+00

 Vector   73  Occ=0.000000D+00  E= 4.269305D+01

 Vector   74  Occ=0.000000D+00  E= 4.318914D+01

         Total DFT energy =     -151.600381971835

                       DFT Final Molecular Orbital Analysis
                       ------------------------------------

 Vector    1  Occ=2.000000D+00  E=-1.882952D+01

 Vector    2  Occ=2.000000D+00  E=-1.882949D+01

 Vector    3  Occ=2.000000D+00  E=-1.022206D+00

 Vector    4  Occ=2.000000D+00  E=-8.127048D-01

 Vector    5  Occ=2.000000D+00  E=-4.825903D-01

 Vector    6  Occ=2.000000D+00  E=-4.355314D-01

 Vector    7  Occ=2.000000D+00  E=-3.674534D-01

 Vector    8  Occ=2.000000D+00  E=-2.724966D-01

 Vector    9  Occ=2.000000D+00  E=-2.248632D-01

 Vector   10  Occ=0.000000D+00  E=-3.813636D-02

 Vector   11  Occ=0.000000D+00  E=-3.201035D-03

 Vector   12  Occ=0.000000D+00  E= 4.344432D-02

 Vector   13  Occ=0.000000D+00  E= 3.373729D-01

 Vector   14  Occ=0.000000D+00  E= 3.457332D-01

 Vector   15  Occ=0.000000D+00  E= 3.527183D-01

 Vector   16  Occ=0.000000D+00  E= 3.729183D-01

 Vector   17  Occ=0.000000D+00  E= 4.108781D-01

 Vector   18  Occ=0.000000D+00  E= 4.439461D-01

 Vector   19  Occ=0.000000D+00  E= 4.654937D-01

 Vector   20  Occ=0.000000D+00  E= 5.230709D-01

 Vector   21  Occ=0.000000D+00  E= 5.849651D-01

 Vector   22  Occ=0.000000D+00  E= 6.748516D-01

 Vector   23  Occ=0.000000D+00  E= 1.015911D+00

 Vector   24  Occ=0.000000D+00  E= 1.080430D+00

 Vector   25  Occ=0.000000D+00  E= 1.192304D+00

 Vector   26  Occ=0.000000D+00  E= 1.229741D+00

 Vector   27  Occ=0.000000D+00  E= 1.527172D+00

 Vector   28  Occ=0.000000D+00  E= 1.528307D+00

 Vector   29  Occ=0.000000D+00  E= 1.621217D+00

 Vector   30  Occ=0.000000D+00  E= 1.671694D+00

 Vector   31  Occ=0.000000D+00  E= 1.758293D+00

 Vector   32  Occ=0.000000D+00  E= 1.847858D+00

 Vector   33  Occ=0.000000D+00  E= 1.950996D+00

 Vector   34  Occ=0.000000D+00  E= 2.026200D+00

 Vector   35  Occ=0.000000D+00  E= 2.087826D+00

 Vector   36  Occ=0.000000D+00  E= 2.101048D+00

 Vector   37  Occ=0.000000D+00  E= 2.192300D+00

 Vector   38  Occ=0.000000D+00  E= 2.239374D+00

 Vector   39  Occ=0.000000D+00  E= 2.387396D+00

 Vector   40  Occ=0.000000D+00  E= 2.402793D+00

 Vector   41  Occ=0.000000D+00  E= 2.462480D+00

 Vector   42  Occ=0.000000D+00  E= 2.582534D+00

 Vector   43  Occ=0.000000D+00  E= 2.589874D+00

 Vector   44  Occ=0.000000D+00  E= 2.689655D+00

 Vector   45  Occ=0.000000D+00  E= 2.732682D+00

 Vector   46  Occ=0.000000D+00  E= 3.572750D+00

 Vector   47  Occ=0.000000D+00  E= 3.615727D+00

 Vector   48  Occ=0.000000D+00  E= 3.932148D+00

 Vector   49  Occ=0.000000D+00  E= 4.637758D+00

 Vector   50  Occ=0.000000D+00  E= 4.710577D+00

 Vector   51  Occ=0.000000D+00  E= 4.730808D+00

 Vector   52  Occ=0.000000D+00  E= 4.822165D+00

 Vector   53  Occ=0.000000D+00  E= 4.921584D+00

 Vector   54  Occ=0.000000D+00  E= 5.186670D+00

 Vector   55  Occ=0.000000D+00  E= 5.254839D+00

 Vector   56  Occ=0.000000D+00  E= 5.293605D+00

 Vector   57  Occ=0.000000D+00  E= 5.312357D+00

 Vector   58  Occ=0.000000D+00  E= 5.656373D+00

 Vector   59  Occ=0.000000D+00  E= 5.678463D+00

 Vector   60  Occ=0.000000D+00  E= 5.868468D+00

 Vector   61  Occ=0.000000D+00  E= 5.960223D+00

 Vector   62  Occ=0.000000D+00  E= 6.142906D+00

 Vector   63  Occ=0.000000D+00  E= 6.153619D+00

 Vector   64  Occ=0.000000D+00  E= 6.180335D+00

 Vector   65  Occ=0.000000D+00  E= 6.222472D+00

 Vector   66  Occ=0.000000D+00  E= 6.260300D+00

 Vector   67  Occ=0.000000D+00  E= 6.544664D+00

 Vector   68  Occ=0.000000D+00  E= 6.636813D+00

 Vector   69  Occ=0.000000D+00  E= 6.824638D+00

 Vector   70  Occ=0.000000D+00  E= 6.870544D+00

 Vector   71  Occ=0.000000D+00  E= 7.075425D+00

 Vector   72  Occ=0.000000D+00  E= 7.846310D+00

 Vector   73  Occ=0.000000D+00  E= 4.269305D+01

 Vector   74  Occ=0.000000D+00  E= 4.318914D+01

     Multipole analysis of the density
     ---------------------------------

     L   x y z        total         alpha         beta         nuclear
     -   - - -        -----         -----         ----         -------
     0   0 0 0      0.000000     -9.000000     -9.000000     18.000000

     1   1 0 0     -0.392584    140.558809    140.558809   -281.510202
     1   0 1 0      0.475244    -44.315861    -44.315861     89.106966
     1   0 0 1      0.270369     -0.566085     -0.566085      1.402540

     2   2 0 0      3.519842  -2201.400732  -2201.400732   4406.321307
     2   1 1 0    -10.135609    690.076149    690.076149  -1390.287907
     2   1 0 1     -2.595330     11.031824     11.031824    -24.658978
     2   0 2 0     -4.857606   -229.609592   -229.609592    454.361578
     2   0 1 1      1.286561      5.067714      5.067714     -8.848867

 Total times  cpu:      371.8s     wall:      377.5s
