============================== echo of input deck ==============================
echo
start h2o2_514.5_04.inp
title "h2o2 roa calculations at 514.5 nm, input generated by va with delta_type=2"
charge 0

geometry units angstrom nocenter noautoz noautosym nucleus point;symmetry c1
 O -8.052742  3.049633 -0.528076
 O -8.434824  2.111525  0.566105
 H -8.950219  3.220185 -0.880239
 H -8.123395  2.650404  1.321880
end

basis spherical
* library def2-TZVP
end

 set prop:newaoresp 1
 set aor:roadata T
 set cphf:maxsub 100
 set cphf:acc 1.0d-10
 set cphf:maxiter 100

property
    response 1   0.088558
    bdtensor
    convergence 1e-9
    damping 0.0037
    giao
end

dft
 direct
 mult 1
 xc becke88 lyp
 iterations 250
 tolerances tight
 grid xfine
 convergence nolevelshifting
 convergence energy 1e-8
 convergence gradient 1e-8

end

task dft gradient
task dft property
================================================================================

 Output coordinates in angstroms (scale by  1.889725989 to convert to a.u.)

  No.       Tag          Charge          X              Y              Z
 ---- ---------------- ---------- -------------- -------------- --------------
    1 O                    8.0000    -8.05274200     3.04963300    -0.52807600
    2 O                    8.0000    -8.43482400     2.11152500     0.56610500
    3 H                    1.0000    -8.95021900     3.22018500    -0.88023900
    4 H                    1.0000    -8.12339500     2.65040400     1.32188000

         Total DFT energy =     -151.601029004069

 Vector   69  Occ=0.000000D+00  E= 6.752593D+00

 Vector   70  Occ=0.000000D+00  E= 6.804478D+00

 Vector   71  Occ=0.000000D+00  E= 7.023304D+00

 Vector   72  Occ=0.000000D+00  E= 7.719924D+00

 Vector   73  Occ=0.000000D+00  E= 4.266921D+01

 Vector   74  Occ=0.000000D+00  E= 4.314436D+01

         Total DFT energy =     -151.601029004417

                       DFT Final Molecular Orbital Analysis
                       ------------------------------------

 Vector    1  Occ=2.000000D+00  E=-1.883200D+01

 Vector    2  Occ=2.000000D+00  E=-1.883197D+01

 Vector    3  Occ=2.000000D+00  E=-1.009527D+00

 Vector    4  Occ=2.000000D+00  E=-8.184454D-01

 Vector    5  Occ=2.000000D+00  E=-4.706753D-01

 Vector    6  Occ=2.000000D+00  E=-4.354241D-01

 Vector    7  Occ=2.000000D+00  E=-3.673184D-01

 Vector    8  Occ=2.000000D+00  E=-2.762101D-01

 Vector    9  Occ=2.000000D+00  E=-2.308674D-01

 Vector   10  Occ=0.000000D+00  E=-5.940477D-02

 Vector   11  Occ=0.000000D+00  E=-4.358989D-03

 Vector   12  Occ=0.000000D+00  E= 3.973950D-02

 Vector   13  Occ=0.000000D+00  E= 3.358458D-01

 Vector   14  Occ=0.000000D+00  E= 3.430608D-01

 Vector   15  Occ=0.000000D+00  E= 3.516801D-01

 Vector   16  Occ=0.000000D+00  E= 3.716995D-01

 Vector   17  Occ=0.000000D+00  E= 4.138355D-01

 Vector   18  Occ=0.000000D+00  E= 4.420038D-01

 Vector   19  Occ=0.000000D+00  E= 4.653620D-01

 Vector   20  Occ=0.000000D+00  E= 5.207427D-01

 Vector   21  Occ=0.000000D+00  E= 5.880756D-01

 Vector   22  Occ=0.000000D+00  E= 6.669154D-01

 Vector   23  Occ=0.000000D+00  E= 1.008300D+00

 Vector   24  Occ=0.000000D+00  E= 1.079942D+00

 Vector   25  Occ=0.000000D+00  E= 1.178541D+00

 Vector   26  Occ=0.000000D+00  E= 1.223073D+00

 Vector   27  Occ=0.000000D+00  E= 1.519807D+00

 Vector   28  Occ=0.000000D+00  E= 1.537492D+00

 Vector   29  Occ=0.000000D+00  E= 1.605885D+00

 Vector   30  Occ=0.000000D+00  E= 1.651314D+00

 Vector   31  Occ=0.000000D+00  E= 1.747849D+00

 Vector   32  Occ=0.000000D+00  E= 1.853566D+00

 Vector   33  Occ=0.000000D+00  E= 1.961776D+00

 Vector   34  Occ=0.000000D+00  E= 2.009248D+00

 Vector   35  Occ=0.000000D+00  E= 2.069649D+00

 Vector   36  Occ=0.000000D+00  E= 2.096660D+00

 Vector   37  Occ=0.000000D+00  E= 2.185316D+00

 Vector   38  Occ=0.000000D+00  E= 2.224024D+00

 Vector   39  Occ=0.000000D+00  E= 2.382455D+00

 Vector   40  Occ=0.000000D+00  E= 2.400747D+00

 Vector   41  Occ=0.000000D+00  E= 2.438194D+00

 Vector   42  Occ=0.000000D+00  E= 2.565781D+00

 Vector   43  Occ=0.000000D+00  E= 2.570285D+00

 Vector   44  Occ=0.000000D+00  E= 2.673942D+00

 Vector   45  Occ=0.000000D+00  E= 2.715560D+00

 Vector   46  Occ=0.000000D+00  E= 3.568575D+00

 Vector   47  Occ=0.000000D+00  E= 3.611803D+00

 Vector   48  Occ=0.000000D+00  E= 3.843053D+00

 Vector   49  Occ=0.000000D+00  E= 4.660286D+00

 Vector   50  Occ=0.000000D+00  E= 4.721323D+00

 Vector   51  Occ=0.000000D+00  E= 4.743573D+00

 Vector   52  Occ=0.000000D+00  E= 4.841068D+00

 Vector   53  Occ=0.000000D+00  E= 4.944393D+00

 Vector   54  Occ=0.000000D+00  E= 5.194602D+00

 Vector   55  Occ=0.000000D+00  E= 5.252802D+00

 Vector   56  Occ=0.000000D+00  E= 5.254004D+00

 Vector   57  Occ=0.000000D+00  E= 5.291558D+00

 Vector   58  Occ=0.000000D+00  E= 5.549902D+00

 Vector   59  Occ=0.000000D+00  E= 5.588460D+00

 Vector   60  Occ=0.000000D+00  E= 5.858514D+00

 Vector   61  Occ=0.000000D+00  E= 5.951033D+00

 Vector   62  Occ=0.000000D+00  E= 6.095099D+00

 Vector   63  Occ=0.000000D+00  E= 6.116096D+00

 Vector   64  Occ=0.000000D+00  E= 6.171861D+00

 Vector   65  Occ=0.000000D+00  E= 6.201109D+00

 Vector   66  Occ=0.000000D+00  E= 6.252457D+00

 Vector   67  Occ=0.000000D+00  E= 6.519157D+00

 Vector   68  Occ=0.000000D+00  E= 6.619705D+00

 Vector   69  Occ=0.000000D+00  E= 6.752592D+00

 Vector   70  Occ=0.000000D+00  E= 6.804477D+00

 Vector   71  Occ=0.000000D+00  E= 7.023304D+00

 Vector   72  Occ=0.000000D+00  E= 7.719923D+00

 Vector   73  Occ=0.000000D+00  E= 4.266921D+01

 Vector   74  Occ=0.000000D+00  E= 4.314436D+01

     Multipole analysis of the density
     ---------------------------------

     L   x y z        total         alpha         beta         nuclear
     -   - - -        -----         -----         ----         -------
     0   0 0 0     -0.000000     -9.000000     -9.000000     18.000000

     1   1 0 0     -0.397756    140.561276    140.561276   -281.520308
     1   0 1 0      0.481501    -44.318849    -44.318849     89.119200
     1   0 0 1      0.273934     -0.567781     -0.567781      1.409496

     2   2 0 0      3.694955  -2201.569274  -2201.569274   4406.833502
     2   1 1 0    -10.241409    689.982742    689.982742  -1390.206893
     2   1 0 1     -2.667359     11.236666     11.236666    -25.140691
     2   0 2 0     -4.807600   -229.995990   -229.995990    455.184380
     2   0 1 1      1.356378      5.412994      5.412994     -9.469611

 Total times  cpu:      381.3s     wall:      384.4s
