============================== echo of input deck ==============================
echo
start h2o2_514.5_05.inp
title "h2o2 roa calculations at 514.5 nm, input generated by va with delta_type=2"
charge 0

geometry units angstrom nocenter noautoz noautosym nucleus point;symmetry c1
 O -8.054982  3.049475 -0.529281
 O -8.434171  2.111353  0.565983
 H -8.927252  3.228885 -0.889895
 H -8.121185  2.646939  1.352600
end

basis spherical
* library def2-TZVP
end

 set prop:newaoresp 1
 set aor:roadata T
 set cphf:maxsub 100
 set cphf:acc 1.0d-10
 set cphf:maxiter 100

property
    response 1   0.088558
    bdtensor
    convergence 1e-9
    damping 0.0037
    giao
end

dft
 direct
 mult 1
 xc becke88 lyp
 iterations 250
 tolerances tight
 grid xfine
 convergence nolevelshifting
 convergence energy 1e-8
 convergence gradient 1e-8

end

task dft gradient
task dft property
================================================================================

 Output coordinates in angstroms (scale by  1.889725989 to convert to a.u.)

  No.       Tag          Charge          X              Y              Z
 ---- ---------------- ---------- -------------- -------------- --------------
    1 O                    8.0000    -8.05498200     3.04947500    -0.52928100
    2 O                    8.0000    -8.43417100     2.11135300     0.56598300
    3 H                    1.0000    -8.92725200     3.22888500    -0.88989500
    4 H                    1.0000    -8.12118500     2.64693900     1.35260000

         Total DFT energy =     -151.600460308342

 Vector   69  Occ=0.000000D+00  E= 6.753648D+00

 Vector   70  Occ=0.000000D+00  E= 6.814504D+00

 Vector   71  Occ=0.000000D+00  E= 7.024916D+00

 Vector   72  Occ=0.000000D+00  E= 7.714814D+00

 Vector   73  Occ=0.000000D+00  E= 4.266648D+01

 Vector   74  Occ=0.000000D+00  E= 4.314197D+01

         Total DFT energy =     -151.600460308381

                       DFT Final Molecular Orbital Analysis
                       ------------------------------------

 Vector    1  Occ=2.000000D+00  E=-1.883405D+01

 Vector    2  Occ=2.000000D+00  E=-1.882990D+01

 Vector    3  Occ=2.000000D+00  E=-1.007830D+00

 Vector    4  Occ=2.000000D+00  E=-8.186302D-01

 Vector    5  Occ=2.000000D+00  E=-4.732697D-01

 Vector    6  Occ=2.000000D+00  E=-4.328830D-01

 Vector    7  Occ=2.000000D+00  E=-3.653989D-01

 Vector    8  Occ=2.000000D+00  E=-2.754627D-01

 Vector    9  Occ=2.000000D+00  E=-2.306592D-01

 Vector   10  Occ=0.000000D+00  E=-6.021517D-02

 Vector   11  Occ=0.000000D+00  E=-4.917508D-03

 Vector   12  Occ=0.000000D+00  E= 3.963804D-02

 Vector   13  Occ=0.000000D+00  E= 3.314407D-01

 Vector   14  Occ=0.000000D+00  E= 3.475803D-01

 Vector   15  Occ=0.000000D+00  E= 3.526429D-01

 Vector   16  Occ=0.000000D+00  E= 3.726188D-01

 Vector   17  Occ=0.000000D+00  E= 4.127550D-01

 Vector   18  Occ=0.000000D+00  E= 4.425994D-01

 Vector   19  Occ=0.000000D+00  E= 4.649878D-01

 Vector   20  Occ=0.000000D+00  E= 5.217638D-01

 Vector   21  Occ=0.000000D+00  E= 5.870842D-01

 Vector   22  Occ=0.000000D+00  E= 6.695173D-01

 Vector   23  Occ=0.000000D+00  E= 1.012389D+00

 Vector   24  Occ=0.000000D+00  E= 1.080295D+00

 Vector   25  Occ=0.000000D+00  E= 1.184072D+00

 Vector   26  Occ=0.000000D+00  E= 1.224451D+00

 Vector   27  Occ=0.000000D+00  E= 1.516111D+00

 Vector   28  Occ=0.000000D+00  E= 1.537383D+00

 Vector   29  Occ=0.000000D+00  E= 1.601360D+00

 Vector   30  Occ=0.000000D+00  E= 1.645908D+00

 Vector   31  Occ=0.000000D+00  E= 1.741936D+00

 Vector   32  Occ=0.000000D+00  E= 1.850773D+00

 Vector   33  Occ=0.000000D+00  E= 1.952530D+00

 Vector   34  Occ=0.000000D+00  E= 2.018929D+00

 Vector   35  Occ=0.000000D+00  E= 2.066941D+00

 Vector   36  Occ=0.000000D+00  E= 2.099691D+00

 Vector   37  Occ=0.000000D+00  E= 2.184423D+00

 Vector   38  Occ=0.000000D+00  E= 2.230972D+00

 Vector   39  Occ=0.000000D+00  E= 2.378699D+00

 Vector   40  Occ=0.000000D+00  E= 2.400205D+00

 Vector   41  Occ=0.000000D+00  E= 2.434436D+00

 Vector   42  Occ=0.000000D+00  E= 2.553273D+00

 Vector   43  Occ=0.000000D+00  E= 2.584854D+00

 Vector   44  Occ=0.000000D+00  E= 2.675230D+00

 Vector   45  Occ=0.000000D+00  E= 2.717557D+00

 Vector   46  Occ=0.000000D+00  E= 3.552725D+00

 Vector   47  Occ=0.000000D+00  E= 3.620416D+00

 Vector   48  Occ=0.000000D+00  E= 3.847717D+00

 Vector   49  Occ=0.000000D+00  E= 4.659877D+00

 Vector   50  Occ=0.000000D+00  E= 4.719923D+00

 Vector   51  Occ=0.000000D+00  E= 4.743076D+00

 Vector   52  Occ=0.000000D+00  E= 4.841771D+00

 Vector   53  Occ=0.000000D+00  E= 4.944676D+00

 Vector   54  Occ=0.000000D+00  E= 5.185530D+00

 Vector   55  Occ=0.000000D+00  E= 5.241936D+00

 Vector   56  Occ=0.000000D+00  E= 5.268000D+00

 Vector   57  Occ=0.000000D+00  E= 5.282595D+00

 Vector   58  Occ=0.000000D+00  E= 5.563306D+00

 Vector   59  Occ=0.000000D+00  E= 5.592557D+00

 Vector   60  Occ=0.000000D+00  E= 5.823373D+00

 Vector   61  Occ=0.000000D+00  E= 5.966930D+00

 Vector   62  Occ=0.000000D+00  E= 6.100093D+00

 Vector   63  Occ=0.000000D+00  E= 6.115870D+00

 Vector   64  Occ=0.000000D+00  E= 6.170675D+00

 Vector   65  Occ=0.000000D+00  E= 6.195249D+00

 Vector   66  Occ=0.000000D+00  E= 6.251044D+00

 Vector   67  Occ=0.000000D+00  E= 6.514059D+00

 Vector   68  Occ=0.000000D+00  E= 6.615328D+00

 Vector   69  Occ=0.000000D+00  E= 6.753648D+00

 Vector   70  Occ=0.000000D+00  E= 6.814504D+00

 Vector   71  Occ=0.000000D+00  E= 7.024916D+00

 Vector   72  Occ=0.000000D+00  E= 7.714814D+00

 Vector   73  Occ=0.000000D+00  E= 4.266648D+01

 Vector   74  Occ=0.000000D+00  E= 4.314197D+01

     Multipole analysis of the density
     ---------------------------------

     L   x y z        total         alpha         beta         nuclear
     -   - - -        -----         -----         ----         -------
     0   0 0 0     -0.000000     -9.000000     -9.000000     18.000000

     1   1 0 0     -0.392385    140.552168    140.552168   -281.496722
     1   0 1 0      0.480252    -44.321926    -44.321926     89.124104
     1   0 0 1      0.282278     -0.573481     -0.573481      1.429239

     2   2 0 0      3.469084  -2201.243029  -2201.243029   4405.955143
     2   1 1 0    -10.195309    689.990693    689.990693  -1390.176695
     2   1 0 1     -2.794841     11.319828     11.319828    -25.434497
     2   0 2 0     -4.800055   -230.035484   -230.035484    455.270913
     2   0 1 1      1.363923      5.405467      5.405467     -9.447012

 Total times  cpu:      381.1s     wall:      383.7s
