============================== echo of input deck ==============================
echo
start h2o2_514.5_11.inp
title "h2o2 roa calculations at 514.5 nm, input generated by va with delta_type=2"
charge 0

geometry units angstrom nocenter noautoz noautosym nucleus point;symmetry c1
 O -8.052971  3.049070 -0.528492
 O -8.433336  2.112811  0.568075
 H -8.959019  3.235165 -0.902688
 H -8.134584  2.623942  1.319679
end

basis spherical
* library def2-TZVP
end

 set prop:newaoresp 1
 set aor:roadata T
 set cphf:maxsub 100
 set cphf:acc 1.0d-10
 set cphf:maxiter 100

property
    response 1   0.088558
    bdtensor
    convergence 1e-9
    damping 0.0037
    giao
end

dft
 direct
 mult 1
 xc becke88 lyp
 iterations 250
 tolerances tight
 grid xfine
 convergence nolevelshifting
 convergence energy 1e-8
 convergence gradient 1e-8

end

task dft gradient
task dft property
================================================================================

 Output coordinates in angstroms (scale by  1.889725989 to convert to a.u.)

  No.       Tag          Charge          X              Y              Z
 ---- ---------------- ---------- -------------- -------------- --------------
    1 O                    8.0000    -8.05297100     3.04907000    -0.52849200
    2 O                    8.0000    -8.43333600     2.11281100     0.56807500
    3 H                    1.0000    -8.95901900     3.23516500    -0.90268800
    4 H                    1.0000    -8.13458400     2.62394200     1.31967900

         Total DFT energy =     -151.600440863389

 Vector   69  Occ=0.000000D+00  E= 6.753743D+00

 Vector   70  Occ=0.000000D+00  E= 6.818948D+00

 Vector   71  Occ=0.000000D+00  E= 7.028900D+00

 Vector   72  Occ=0.000000D+00  E= 7.713743D+00

 Vector   73  Occ=0.000000D+00  E= 4.266658D+01

 Vector   74  Occ=0.000000D+00  E= 4.314086D+01

         Total DFT energy =     -151.600440863428

                       DFT Final Molecular Orbital Analysis
                       ------------------------------------

 Vector    1  Occ=2.000000D+00  E=-1.883387D+01

 Vector    2  Occ=2.000000D+00  E=-1.882969D+01

 Vector    3  Occ=2.000000D+00  E=-1.008635D+00

 Vector    4  Occ=2.000000D+00  E=-8.200016D-01

 Vector    5  Occ=2.000000D+00  E=-4.740854D-01

 Vector    6  Occ=2.000000D+00  E=-4.331714D-01

 Vector    7  Occ=2.000000D+00  E=-3.655729D-01

 Vector    8  Occ=2.000000D+00  E=-2.757403D-01

 Vector    9  Occ=2.000000D+00  E=-2.309260D-01

 Vector   10  Occ=0.000000D+00  E=-6.040183D-02

 Vector   11  Occ=0.000000D+00  E=-4.108171D-03

 Vector   12  Occ=0.000000D+00  E= 4.064058D-02

 Vector   13  Occ=0.000000D+00  E= 3.329350D-01

 Vector   14  Occ=0.000000D+00  E= 3.482586D-01

 Vector   15  Occ=0.000000D+00  E= 3.534359D-01

 Vector   16  Occ=0.000000D+00  E= 3.725480D-01

 Vector   17  Occ=0.000000D+00  E= 4.130224D-01

 Vector   18  Occ=0.000000D+00  E= 4.425513D-01

 Vector   19  Occ=0.000000D+00  E= 4.656720D-01

 Vector   20  Occ=0.000000D+00  E= 5.223523D-01

 Vector   21  Occ=0.000000D+00  E= 5.872457D-01

 Vector   22  Occ=0.000000D+00  E= 6.692536D-01

 Vector   23  Occ=0.000000D+00  E= 1.012544D+00

 Vector   24  Occ=0.000000D+00  E= 1.080515D+00

 Vector   25  Occ=0.000000D+00  E= 1.184434D+00

 Vector   26  Occ=0.000000D+00  E= 1.225267D+00

 Vector   27  Occ=0.000000D+00  E= 1.513834D+00

 Vector   28  Occ=0.000000D+00  E= 1.536166D+00

 Vector   29  Occ=0.000000D+00  E= 1.602305D+00

 Vector   30  Occ=0.000000D+00  E= 1.646186D+00

 Vector   31  Occ=0.000000D+00  E= 1.743360D+00

 Vector   32  Occ=0.000000D+00  E= 1.849631D+00

 Vector   33  Occ=0.000000D+00  E= 1.954712D+00

 Vector   34  Occ=0.000000D+00  E= 2.020901D+00

 Vector   35  Occ=0.000000D+00  E= 2.068487D+00

 Vector   36  Occ=0.000000D+00  E= 2.099922D+00

 Vector   37  Occ=0.000000D+00  E= 2.184205D+00

 Vector   38  Occ=0.000000D+00  E= 2.231166D+00

 Vector   39  Occ=0.000000D+00  E= 2.381196D+00

 Vector   40  Occ=0.000000D+00  E= 2.402798D+00

 Vector   41  Occ=0.000000D+00  E= 2.436428D+00

 Vector   42  Occ=0.000000D+00  E= 2.556134D+00

 Vector   43  Occ=0.000000D+00  E= 2.589781D+00

 Vector   44  Occ=0.000000D+00  E= 2.675865D+00

 Vector   45  Occ=0.000000D+00  E= 2.718755D+00

 Vector   46  Occ=0.000000D+00  E= 3.557281D+00

 Vector   47  Occ=0.000000D+00  E= 3.625513D+00

 Vector   48  Occ=0.000000D+00  E= 3.849027D+00

 Vector   49  Occ=0.000000D+00  E= 4.659936D+00

 Vector   50  Occ=0.000000D+00  E= 4.719950D+00

 Vector   51  Occ=0.000000D+00  E= 4.743485D+00

 Vector   52  Occ=0.000000D+00  E= 4.842305D+00

 Vector   53  Occ=0.000000D+00  E= 4.946434D+00

 Vector   54  Occ=0.000000D+00  E= 5.187490D+00

 Vector   55  Occ=0.000000D+00  E= 5.244087D+00

 Vector   56  Occ=0.000000D+00  E= 5.270496D+00

 Vector   57  Occ=0.000000D+00  E= 5.283865D+00

 Vector   58  Occ=0.000000D+00  E= 5.564807D+00

 Vector   59  Occ=0.000000D+00  E= 5.593249D+00

 Vector   60  Occ=0.000000D+00  E= 5.833086D+00

 Vector   61  Occ=0.000000D+00  E= 5.977105D+00

 Vector   62  Occ=0.000000D+00  E= 6.102031D+00

 Vector   63  Occ=0.000000D+00  E= 6.116035D+00

 Vector   64  Occ=0.000000D+00  E= 6.172368D+00

 Vector   65  Occ=0.000000D+00  E= 6.196021D+00

 Vector   66  Occ=0.000000D+00  E= 6.252112D+00

 Vector   67  Occ=0.000000D+00  E= 6.515705D+00

 Vector   68  Occ=0.000000D+00  E= 6.616417D+00

 Vector   69  Occ=0.000000D+00  E= 6.753743D+00

 Vector   70  Occ=0.000000D+00  E= 6.818948D+00

 Vector   71  Occ=0.000000D+00  E= 7.028900D+00

 Vector   72  Occ=0.000000D+00  E= 7.713743D+00

 Vector   73  Occ=0.000000D+00  E= 4.266658D+01

 Vector   74  Occ=0.000000D+00  E= 4.314086D+01

     Multipole analysis of the density
     ---------------------------------

     L   x y z        total         alpha         beta         nuclear
     -   - - -        -----         -----         ----         -------
     0   0 0 0     -0.000000     -9.000000     -9.000000     18.000000

     1   1 0 0     -0.401923    140.568563    140.568563   -281.539048
     1   0 1 0      0.481283    -44.313575    -44.313575     89.108432
     1   0 0 1      0.264532     -0.560938     -0.560938      1.386407

     2   2 0 0      3.830382  -2201.801920  -2201.801920   4407.434223
     2   1 1 0    -10.288079    689.973485    689.973485  -1390.235049
     2   1 0 1     -2.516073     11.109512     11.109512    -24.735097
     2   0 2 0     -4.811798   -229.950099   -229.950099    455.088400
     2   0 1 1      1.230991      5.520309      5.520309     -9.809626

 Total times  cpu:      412.9s     wall:      416.5s
