============================== echo of input deck ==============================
echo
start h2o2_514.5_07.inp
title "h2o2 roa calculations at 514.5 nm, input generated by va with delta_type=2"
charge 0

geometry units angstrom nocenter noautoz noautosym nucleus point;symmetry c1
 O -8.054092  3.047925 -0.529534
 O -8.432303  2.111814  0.566757
 H -8.945154  3.248862 -0.883624
 H -8.147042  2.644237  1.338056
end

basis spherical
* library def2-TZVP
end

 set prop:newaoresp 1
 set aor:roadata T
 set cphf:maxsub 100
 set cphf:acc 1.0d-10
 set cphf:maxiter 100

property
    response 1   0.088558
    bdtensor
    convergence 1e-9
    damping 0.0037
    giao
end

dft
 direct
 mult 1
 xc becke88 lyp
 iterations 250
 tolerances tight
 grid xfine
 convergence nolevelshifting
 convergence energy 1e-8
 convergence gradient 1e-8

end

task dft gradient
task dft property
================================================================================

 Output coordinates in angstroms (scale by  1.889725989 to convert to a.u.)

  No.       Tag          Charge          X              Y              Z
 ---- ---------------- ---------- -------------- -------------- --------------
    1 O                    8.0000    -8.05409200     3.04792500    -0.52953400
    2 O                    8.0000    -8.43230300     2.11181400     0.56675700
    3 H                    1.0000    -8.94515400     3.24886200    -0.88362400
    4 H                    1.0000    -8.14704200     2.64423700     1.33805600

         Total DFT energy =     -151.601145367610

 Vector   69  Occ=0.000000D+00  E= 6.755061D+00

 Vector   70  Occ=0.000000D+00  E= 6.822241D+00

 Vector   71  Occ=0.000000D+00  E= 7.023207D+00

 Vector   72  Occ=0.000000D+00  E= 7.716440D+00

 Vector   73  Occ=0.000000D+00  E= 4.266724D+01

 Vector   74  Occ=0.000000D+00  E= 4.314330D+01

         Total DFT energy =     -151.601145367785

                       DFT Final Molecular Orbital Analysis
                       ------------------------------------

 Vector    1  Occ=2.000000D+00  E=-1.883205D+01

 Vector    2  Occ=2.000000D+00  E=-1.883202D+01

 Vector    3  Occ=2.000000D+00  E=-1.008268D+00

 Vector    4  Occ=2.000000D+00  E=-8.190215D-01

 Vector    5  Occ=2.000000D+00  E=-4.748528D-01

 Vector    6  Occ=2.000000D+00  E=-4.317474D-01

 Vector    7  Occ=2.000000D+00  E=-3.664750D-01

 Vector    8  Occ=2.000000D+00  E=-2.731391D-01

 Vector    9  Occ=2.000000D+00  E=-2.325860D-01

 Vector   10  Occ=0.000000D+00  E=-5.997938D-02

 Vector   11  Occ=0.000000D+00  E=-4.267641D-03

 Vector   12  Occ=0.000000D+00  E= 3.971805D-02

 Vector   13  Occ=0.000000D+00  E= 3.382801D-01

 Vector   14  Occ=0.000000D+00  E= 3.433664D-01

 Vector   15  Occ=0.000000D+00  E= 3.516154D-01

 Vector   16  Occ=0.000000D+00  E= 3.726502D-01

 Vector   17  Occ=0.000000D+00  E= 4.133146D-01

 Vector   18  Occ=0.000000D+00  E= 4.413554D-01

 Vector   19  Occ=0.000000D+00  E= 4.652494D-01

 Vector   20  Occ=0.000000D+00  E= 5.203619D-01

 Vector   21  Occ=0.000000D+00  E= 5.899135D-01

 Vector   22  Occ=0.000000D+00  E= 6.686387D-01

 Vector   23  Occ=0.000000D+00  E= 1.015188D+00

 Vector   24  Occ=0.000000D+00  E= 1.077504D+00

 Vector   25  Occ=0.000000D+00  E= 1.179380D+00

 Vector   26  Occ=0.000000D+00  E= 1.228182D+00

 Vector   27  Occ=0.000000D+00  E= 1.521293D+00

 Vector   28  Occ=0.000000D+00  E= 1.532090D+00

 Vector   29  Occ=0.000000D+00  E= 1.609618D+00

 Vector   30  Occ=0.000000D+00  E= 1.649253D+00

 Vector   31  Occ=0.000000D+00  E= 1.734388D+00

 Vector   32  Occ=0.000000D+00  E= 1.848046D+00

 Vector   33  Occ=0.000000D+00  E= 1.954744D+00

 Vector   34  Occ=0.000000D+00  E= 2.023609D+00

 Vector   35  Occ=0.000000D+00  E= 2.069707D+00

 Vector   36  Occ=0.000000D+00  E= 2.096254D+00

 Vector   37  Occ=0.000000D+00  E= 2.183376D+00

 Vector   38  Occ=0.000000D+00  E= 2.232925D+00

 Vector   39  Occ=0.000000D+00  E= 2.387186D+00

 Vector   40  Occ=0.000000D+00  E= 2.400170D+00

 Vector   41  Occ=0.000000D+00  E= 2.430598D+00

 Vector   42  Occ=0.000000D+00  E= 2.566717D+00

 Vector   43  Occ=0.000000D+00  E= 2.569327D+00

 Vector   44  Occ=0.000000D+00  E= 2.676805D+00

 Vector   45  Occ=0.000000D+00  E= 2.718103D+00

 Vector   46  Occ=0.000000D+00  E= 3.567419D+00

 Vector   47  Occ=0.000000D+00  E= 3.610271D+00

 Vector   48  Occ=0.000000D+00  E= 3.848093D+00

 Vector   49  Occ=0.000000D+00  E= 4.662741D+00

 Vector   50  Occ=0.000000D+00  E= 4.721378D+00

 Vector   51  Occ=0.000000D+00  E= 4.740138D+00

 Vector   52  Occ=0.000000D+00  E= 4.833951D+00

 Vector   53  Occ=0.000000D+00  E= 4.953194D+00

 Vector   54  Occ=0.000000D+00  E= 5.182976D+00

 Vector   55  Occ=0.000000D+00  E= 5.251217D+00

 Vector   56  Occ=0.000000D+00  E= 5.258462D+00

 Vector   57  Occ=0.000000D+00  E= 5.284591D+00

 Vector   58  Occ=0.000000D+00  E= 5.571432D+00

 Vector   59  Occ=0.000000D+00  E= 5.591243D+00

 Vector   60  Occ=0.000000D+00  E= 5.850075D+00

 Vector   61  Occ=0.000000D+00  E= 5.952336D+00

 Vector   62  Occ=0.000000D+00  E= 6.098981D+00

 Vector   63  Occ=0.000000D+00  E= 6.118713D+00

 Vector   64  Occ=0.000000D+00  E= 6.164259D+00

 Vector   65  Occ=0.000000D+00  E= 6.191464D+00

 Vector   66  Occ=0.000000D+00  E= 6.255298D+00

 Vector   67  Occ=0.000000D+00  E= 6.517558D+00

 Vector   68  Occ=0.000000D+00  E= 6.610616D+00

 Vector   69  Occ=0.000000D+00  E= 6.755060D+00

 Vector   70  Occ=0.000000D+00  E= 6.822240D+00

 Vector   71  Occ=0.000000D+00  E= 7.023206D+00

 Vector   72  Occ=0.000000D+00  E= 7.716439D+00

 Vector   73  Occ=0.000000D+00  E= 4.266724D+01

 Vector   74  Occ=0.000000D+00  E= 4.314330D+01

     Multipole analysis of the density
     ---------------------------------

     L   x y z        total         alpha         beta         nuclear
     -   - - -        -----         -----         ----         -------
     0   0 0 0     -0.000000     -9.000000     -9.000000     18.000000

     1   1 0 0     -0.412127    140.562796    140.562796   -281.537720
     1   0 1 0      0.498904    -44.320691    -44.320691     89.140285
     1   0 0 1      0.283827     -0.568827     -0.568827      1.421482

     2   2 0 0      4.109190  -2201.590498  -2201.590498   4407.290186
     2   1 1 0    -10.626022    690.062615    690.062615  -1390.751253
     2   1 0 1     -2.878871     11.256154     11.256154    -25.391179
     2   0 2 0     -4.588591   -230.028093   -230.028093    455.467595
     2   0 1 1      1.357971      5.445270      5.445270     -9.532569

 Total times  cpu:      382.9s     wall:      386.7s
