============================== echo of input deck ==============================
echo
start h2o2_514.5_10.inp
title "h2o2 roa calculations at 514.5 nm, input generated by va with delta_type=2"
charge 0

geometry units angstrom nocenter noautoz noautosym nucleus point;symmetry c1
 O -8.055211  3.048913 -0.529697
 O -8.432682  2.112639  0.567952
 H -8.936052  3.243865 -0.912344
 H -8.132374  2.620478  1.350399
end

basis spherical
* library def2-TZVP
end

 set prop:newaoresp 1
 set aor:roadata T
 set cphf:maxsub 100
 set cphf:acc 1.0d-10
 set cphf:maxiter 100

property
    response 1   0.088558
    bdtensor
    convergence 1e-9
    damping 0.0037
    giao
end

dft
 direct
 mult 1
 xc becke88 lyp
 iterations 250
 tolerances tight
 grid xfine
 convergence nolevelshifting
 convergence energy 1e-8
 convergence gradient 1e-8

end

task dft gradient
task dft property
================================================================================

 Output coordinates in angstroms (scale by  1.889725989 to convert to a.u.)

  No.       Tag          Charge          X              Y              Z
 ---- ---------------- ---------- -------------- -------------- --------------
    1 O                    8.0000    -8.05521100     3.04891300    -0.52969700
    2 O                    8.0000    -8.43268200     2.11263900     0.56795200
    3 H                    1.0000    -8.93605200     3.24386500    -0.91234400
    4 H                    1.0000    -8.13237400     2.62047800     1.35039900

         Total DFT energy =     -151.601029712736

 Vector   69  Occ=0.000000D+00  E= 6.756277D+00

 Vector   70  Occ=0.000000D+00  E= 6.826909D+00

 Vector   71  Occ=0.000000D+00  E= 7.023123D+00

 Vector   72  Occ=0.000000D+00  E= 7.709473D+00

 Vector   73  Occ=0.000000D+00  E= 4.266561D+01

 Vector   74  Occ=0.000000D+00  E= 4.314035D+01

         Total DFT energy =     -151.601029712904

                       DFT Final Molecular Orbital Analysis
                       ------------------------------------

 Vector    1  Occ=2.000000D+00  E=-1.883183D+01

 Vector    2  Occ=2.000000D+00  E=-1.883181D+01

 Vector    3  Occ=2.000000D+00  E=-1.006428D+00

 Vector    4  Occ=2.000000D+00  E=-8.197570D-01

 Vector    5  Occ=2.000000D+00  E=-4.764139D-01

 Vector    6  Occ=2.000000D+00  E=-4.307218D-01

 Vector    7  Occ=2.000000D+00  E=-3.636311D-01

 Vector    8  Occ=2.000000D+00  E=-2.748337D-01

 Vector    9  Occ=2.000000D+00  E=-2.306206D-01

 Vector   10  Occ=0.000000D+00  E=-6.123266D-02

 Vector   11  Occ=0.000000D+00  E=-3.486173D-03

 Vector   12  Occ=0.000000D+00  E= 3.967620D-02

 Vector   13  Occ=0.000000D+00  E= 3.386435D-01

 Vector   14  Occ=0.000000D+00  E= 3.451377D-01

 Vector   15  Occ=0.000000D+00  E= 3.517219D-01

 Vector   16  Occ=0.000000D+00  E= 3.734933D-01

 Vector   17  Occ=0.000000D+00  E= 4.114343D-01

 Vector   18  Occ=0.000000D+00  E= 4.432351D-01

 Vector   19  Occ=0.000000D+00  E= 4.652467D-01

 Vector   20  Occ=0.000000D+00  E= 5.224399D-01

 Vector   21  Occ=0.000000D+00  E= 5.861884D-01

 Vector   22  Occ=0.000000D+00  E= 6.715025D-01

 Vector   23  Occ=0.000000D+00  E= 1.017482D+00

 Vector   24  Occ=0.000000D+00  E= 1.080889D+00

 Vector   25  Occ=0.000000D+00  E= 1.189902D+00

 Vector   26  Occ=0.000000D+00  E= 1.226199D+00

 Vector   27  Occ=0.000000D+00  E= 1.520383D+00

 Vector   28  Occ=0.000000D+00  E= 1.529764D+00

 Vector   29  Occ=0.000000D+00  E= 1.598037D+00

 Vector   30  Occ=0.000000D+00  E= 1.642380D+00

 Vector   31  Occ=0.000000D+00  E= 1.736497D+00

 Vector   32  Occ=0.000000D+00  E= 1.848026D+00

 Vector   33  Occ=0.000000D+00  E= 1.950351D+00

 Vector   34  Occ=0.000000D+00  E= 2.023952D+00

 Vector   35  Occ=0.000000D+00  E= 2.073786D+00

 Vector   36  Occ=0.000000D+00  E= 2.096153D+00

 Vector   37  Occ=0.000000D+00  E= 2.185082D+00

 Vector   38  Occ=0.000000D+00  E= 2.234485D+00

 Vector   39  Occ=0.000000D+00  E= 2.389914D+00

 Vector   40  Occ=0.000000D+00  E= 2.403712D+00

 Vector   41  Occ=0.000000D+00  E= 2.422217D+00

 Vector   42  Occ=0.000000D+00  E= 2.566579D+00

 Vector   43  Occ=0.000000D+00  E= 2.568994D+00

 Vector   44  Occ=0.000000D+00  E= 2.677006D+00

 Vector   45  Occ=0.000000D+00  E= 2.719474D+00

 Vector   46  Occ=0.000000D+00  E= 3.562309D+00

 Vector   47  Occ=0.000000D+00  E= 3.611913D+00

 Vector   48  Occ=0.000000D+00  E= 3.852068D+00

 Vector   49  Occ=0.000000D+00  E= 4.659770D+00

 Vector   50  Occ=0.000000D+00  E= 4.719388D+00

 Vector   51  Occ=0.000000D+00  E= 4.742844D+00

 Vector   52  Occ=0.000000D+00  E= 4.844362D+00

 Vector   53  Occ=0.000000D+00  E= 4.946237D+00

 Vector   54  Occ=0.000000D+00  E= 5.181239D+00

 Vector   55  Occ=0.000000D+00  E= 5.247567D+00

 Vector   56  Occ=0.000000D+00  E= 5.263788D+00

 Vector   57  Occ=0.000000D+00  E= 5.274669D+00

 Vector   58  Occ=0.000000D+00  E= 5.583469D+00

 Vector   59  Occ=0.000000D+00  E= 5.597313D+00

 Vector   60  Occ=0.000000D+00  E= 5.842676D+00

 Vector   61  Occ=0.000000D+00  E= 5.948124D+00

 Vector   62  Occ=0.000000D+00  E= 6.100483D+00

 Vector   63  Occ=0.000000D+00  E= 6.116243D+00

 Vector   64  Occ=0.000000D+00  E= 6.168482D+00

 Vector   65  Occ=0.000000D+00  E= 6.189350D+00

 Vector   66  Occ=0.000000D+00  E= 6.249718D+00

 Vector   67  Occ=0.000000D+00  E= 6.510412D+00

 Vector   68  Occ=0.000000D+00  E= 6.610680D+00

 Vector   69  Occ=0.000000D+00  E= 6.756276D+00

 Vector   70  Occ=0.000000D+00  E= 6.826909D+00

 Vector   71  Occ=0.000000D+00  E= 7.023123D+00

 Vector   72  Occ=0.000000D+00  E= 7.709473D+00

 Vector   73  Occ=0.000000D+00  E= 4.266561D+01

 Vector   74  Occ=0.000000D+00  E= 4.314035D+01

     Multipole analysis of the density
     ---------------------------------

     L   x y z        total         alpha         beta         nuclear
     -   - - -        -----         -----         ----         -------
     0   0 0 0     -0.000000     -9.000000     -9.000000     18.000000

     1   1 0 0     -0.396579    140.559434    140.559434   -281.515447
     1   0 1 0      0.480090    -44.316632    -44.316632     89.113353
     1   0 0 1      0.273116     -0.566510     -0.566510      1.406136

     2   2 0 0      3.603804  -2201.475021  -2201.475021   4406.553846
     2   1 1 0    -10.242638    689.980737    689.980737  -1390.204112
     2   1 0 1     -2.648049     11.191657     11.191657    -25.031362
     2   0 2 0     -4.804124   -229.990414   -229.990414    455.176704
     2   0 1 1      1.238019      5.514600      5.514600     -9.791180

 Total times  cpu:      365.8s     wall:      368.8s
