============================== echo of input deck ==============================
echo
start h2o2_514.5_06.inp
title "h2o2 roa calculations at 514.5 nm, input generated by va with delta_type=2"
charge 0

geometry units angstrom nocenter noautoz noautosym nucleus point;symmetry c1
 O -8.055206  3.049524 -0.529423
 O -8.433390  2.112659  0.567925
 H -8.923767  3.228382 -0.888569
 H -8.133504  2.625926  1.322699
end

basis spherical
* library def2-TZVP
end

 set prop:newaoresp 1
 set aor:roadata T
 set cphf:maxsub 100
 set cphf:acc 1.0d-10
 set cphf:maxiter 100

property
    response 1   0.088558
    bdtensor
    convergence 1e-9
    damping 0.0037
    giao
end

dft
 direct
 mult 1
 xc becke88 lyp
 iterations 250
 tolerances tight
 grid xfine
 convergence nolevelshifting
 convergence energy 1e-8
 convergence gradient 1e-8

end

task dft gradient
task dft property
================================================================================

 Output coordinates in angstroms (scale by  1.889725989 to convert to a.u.)

  No.       Tag          Charge          X              Y              Z
 ---- ---------------- ---------- -------------- -------------- --------------
    1 O                    8.0000    -8.05520600     3.04952400    -0.52942300
    2 O                    8.0000    -8.43339000     2.11265900     0.56792500
    3 H                    1.0000    -8.92376700     3.22838200    -0.88856900
    4 H                    1.0000    -8.13350400     2.62592600     1.32269900

         Total DFT energy =     -151.600414378156

 Vector   69  Occ=0.000000D+00  E= 6.754636D+00

 Vector   70  Occ=0.000000D+00  E= 6.841438D+00

 Vector   71  Occ=0.000000D+00  E= 7.044674D+00

 Vector   72  Occ=0.000000D+00  E= 7.708761D+00

 Vector   73  Occ=0.000000D+00  E= 4.266694D+01

 Vector   74  Occ=0.000000D+00  E= 4.313565D+01

         Total DFT energy =     -151.600414378187

                       DFT Final Molecular Orbital Analysis
                       ------------------------------------

 Vector    1  Occ=2.000000D+00  E=-1.883108D+01

 Vector    2  Occ=2.000000D+00  E=-1.883065D+01

 Vector    3  Occ=2.000000D+00  E=-1.012257D+00

 Vector    4  Occ=2.000000D+00  E=-8.264305D-01

 Vector    5  Occ=2.000000D+00  E=-4.778584D-01

 Vector    6  Occ=2.000000D+00  E=-4.345618D-01

 Vector    7  Occ=2.000000D+00  E=-3.663854D-01

 Vector    8  Occ=2.000000D+00  E=-2.770327D-01

 Vector    9  Occ=2.000000D+00  E=-2.321696D-01

 Vector   10  Occ=0.000000D+00  E=-6.127426D-02

 Vector   11  Occ=0.000000D+00  E= 1.259585D-04

 Vector   12  Occ=0.000000D+00  E= 4.483158D-02

 Vector   13  Occ=0.000000D+00  E= 3.446389D-01

 Vector   14  Occ=0.000000D+00  E= 3.484688D-01

 Vector   15  Occ=0.000000D+00  E= 3.554563D-01

 Vector   16  Occ=0.000000D+00  E= 3.722195D-01

 Vector   17  Occ=0.000000D+00  E= 4.140367D-01

 Vector   18  Occ=0.000000D+00  E= 4.423200D-01

 Vector   19  Occ=0.000000D+00  E= 4.691748D-01

 Vector   20  Occ=0.000000D+00  E= 5.247866D-01

 Vector   21  Occ=0.000000D+00  E= 5.879791D-01

 Vector   22  Occ=0.000000D+00  E= 6.680254D-01

 Vector   23  Occ=0.000000D+00  E= 1.013253D+00

 Vector   24  Occ=0.000000D+00  E= 1.081566D+00

 Vector   25  Occ=0.000000D+00  E= 1.186248D+00

 Vector   26  Occ=0.000000D+00  E= 1.228867D+00

 Vector   27  Occ=0.000000D+00  E= 1.508749D+00

 Vector   28  Occ=0.000000D+00  E= 1.524743D+00

 Vector   29  Occ=0.000000D+00  E= 1.606876D+00

 Vector   30  Occ=0.000000D+00  E= 1.647822D+00

 Vector   31  Occ=0.000000D+00  E= 1.749327D+00

 Vector   32  Occ=0.000000D+00  E= 1.844653D+00

 Vector   33  Occ=0.000000D+00  E= 1.966683D+00

 Vector   34  Occ=0.000000D+00  E= 2.026745D+00

 Vector   35  Occ=0.000000D+00  E= 2.080799D+00

 Vector   36  Occ=0.000000D+00  E= 2.095969D+00

 Vector   37  Occ=0.000000D+00  E= 2.184848D+00

 Vector   38  Occ=0.000000D+00  E= 2.230819D+00

 Vector   39  Occ=0.000000D+00  E= 2.392239D+00

 Vector   40  Occ=0.000000D+00  E= 2.424743D+00

 Vector   41  Occ=0.000000D+00  E= 2.438969D+00

 Vector   42  Occ=0.000000D+00  E= 2.582452D+00

 Vector   43  Occ=0.000000D+00  E= 2.597494D+00

 Vector   44  Occ=0.000000D+00  E= 2.678853D+00

 Vector   45  Occ=0.000000D+00  E= 2.723985D+00

 Vector   46  Occ=0.000000D+00  E= 3.587886D+00

 Vector   47  Occ=0.000000D+00  E= 3.639914D+00

 Vector   48  Occ=0.000000D+00  E= 3.854627D+00

 Vector   49  Occ=0.000000D+00  E= 4.660207D+00

 Vector   50  Occ=0.000000D+00  E= 4.720378D+00

 Vector   51  Occ=0.000000D+00  E= 4.745085D+00

 Vector   52  Occ=0.000000D+00  E= 4.845150D+00

 Vector   53  Occ=0.000000D+00  E= 4.954100D+00

 Vector   54  Occ=0.000000D+00  E= 5.197675D+00

 Vector   55  Occ=0.000000D+00  E= 5.266006D+00

 Vector   56  Occ=0.000000D+00  E= 5.269836D+00

 Vector   57  Occ=0.000000D+00  E= 5.288960D+00

 Vector   58  Occ=0.000000D+00  E= 5.572058D+00

 Vector   59  Occ=0.000000D+00  E= 5.595439D+00

 Vector   60  Occ=0.000000D+00  E= 5.900490D+00

 Vector   61  Occ=0.000000D+00  E= 6.007826D+00

 Vector   62  Occ=0.000000D+00  E= 6.108371D+00

 Vector   63  Occ=0.000000D+00  E= 6.116664D+00

 Vector   64  Occ=0.000000D+00  E= 6.179201D+00

 Vector   65  Occ=0.000000D+00  E= 6.199385D+00

 Vector   66  Occ=0.000000D+00  E= 6.256799D+00

 Vector   67  Occ=0.000000D+00  E= 6.524406D+00

 Vector   68  Occ=0.000000D+00  E= 6.620116D+00

 Vector   69  Occ=0.000000D+00  E= 6.754636D+00

 Vector   70  Occ=0.000000D+00  E= 6.841438D+00

 Vector   71  Occ=0.000000D+00  E= 7.044674D+00

 Vector   72  Occ=0.000000D+00  E= 7.708761D+00

 Vector   73  Occ=0.000000D+00  E= 4.266694D+01

 Vector   74  Occ=0.000000D+00  E= 4.313565D+01

     Multipole analysis of the density
     ---------------------------------

     L   x y z        total         alpha         beta         nuclear
     -   - - -        -----         -----         ----         -------
     0   0 0 0     -0.000000     -9.000000     -9.000000     18.000000

     1   1 0 0     -0.394065    140.555465    140.555465   -281.504995
     1   0 1 0      0.477564    -44.313182    -44.313182     89.103929
     1   0 0 1      0.272685     -0.564884     -0.564884      1.402453

     2   2 0 0      3.539407  -2201.317699  -2201.317699   4406.174805
     2   1 1 0    -10.176618    689.874158    689.874158  -1389.924933
     2   1 0 1     -2.668892     11.214575     11.214575    -25.098041
     2   0 2 0     -4.821314   -229.925548   -229.925548    455.029782
     2   0 1 1      1.281279      5.484040      5.484040     -9.686800

 Total times  cpu:      383.9s     wall:      387.5s
