============================== echo of input deck ==============================
echo
start h2o2_514.5_09.inp
title "h2o2 roa calculations at 514.5 nm, input generated by va with delta_type=2"
charge 0

geometry units angstrom nocenter noautoz noautosym nucleus point;symmetry c1
 O -8.052946  3.049449 -0.530177
 O -8.433883  2.113663  0.566538
 H -8.951111  3.219078 -0.881590
 H -8.134211  2.620483  1.349715
end

basis spherical
* library def2-TZVP
end

 set prop:newaoresp 1
 set aor:roadata T
 set cphf:maxsub 100
 set cphf:acc 1.0d-10
 set cphf:maxiter 100

property
    response 1   0.088558
    bdtensor
    convergence 1e-9
    damping 0.0037
    giao
end

dft
 direct
 mult 1
 xc becke88 lyp
 iterations 250
 tolerances tight
 grid xfine
 convergence nolevelshifting
 convergence energy 1e-8
 convergence gradient 1e-8

end

task dft gradient
task dft property
================================================================================

 Output coordinates in angstroms (scale by  1.889725989 to convert to a.u.)

  No.       Tag          Charge          X              Y              Z
 ---- ---------------- ---------- -------------- -------------- --------------
    1 O                    8.0000    -8.05294600     3.04944900    -0.53017700
    2 O                    8.0000    -8.43388300     2.11366300     0.56653800
    3 H                    1.0000    -8.95111100     3.21907800    -0.88159000
    4 H                    1.0000    -8.13421100     2.62048300     1.34971500

         Total DFT energy =     -151.601050102445

 Vector   69  Occ=0.000000D+00  E= 6.752997D+00

 Vector   70  Occ=0.000000D+00  E= 6.817373D+00

 Vector   71  Occ=0.000000D+00  E= 7.022949D+00

 Vector   72  Occ=0.000000D+00  E= 7.714770D+00

 Vector   73  Occ=0.000000D+00  E= 4.266742D+01

 Vector   74  Occ=0.000000D+00  E= 4.314235D+01

         Total DFT energy =     -151.601050102479

                       DFT Final Molecular Orbital Analysis
                       ------------------------------------

 Vector    1  Occ=2.000000D+00  E=-1.883237D+01

 Vector    2  Occ=2.000000D+00  E=-1.883145D+01

 Vector    3  Occ=2.000000D+00  E=-1.007969D+00

 Vector    4  Occ=2.000000D+00  E=-8.190991D-01

 Vector    5  Occ=2.000000D+00  E=-4.735260D-01

 Vector    6  Occ=2.000000D+00  E=-4.331354D-01

 Vector    7  Occ=2.000000D+00  E=-3.654115D-01

 Vector    8  Occ=2.000000D+00  E=-2.755430D-01

 Vector    9  Occ=2.000000D+00  E=-2.307301D-01

 Vector   10  Occ=0.000000D+00  E=-6.031430D-02

 Vector   11  Occ=0.000000D+00  E=-3.897409D-03

 Vector   12  Occ=0.000000D+00  E= 3.967512D-02

 Vector   13  Occ=0.000000D+00  E= 3.371670D-01

 Vector   14  Occ=0.000000D+00  E= 3.442278D-01

 Vector   15  Occ=0.000000D+00  E= 3.516052D-01

 Vector   16  Occ=0.000000D+00  E= 3.726142D-01

 Vector   17  Occ=0.000000D+00  E= 4.127741D-01

 Vector   18  Occ=0.000000D+00  E= 4.425766D-01

 Vector   19  Occ=0.000000D+00  E= 4.652565D-01

 Vector   20  Occ=0.000000D+00  E= 5.215895D-01

 Vector   21  Occ=0.000000D+00  E= 5.869683D-01

 Vector   22  Occ=0.000000D+00  E= 6.693055D-01

 Vector   23  Occ=0.000000D+00  E= 1.012286D+00

 Vector   24  Occ=0.000000D+00  E= 1.080793D+00

 Vector   25  Occ=0.000000D+00  E= 1.184166D+00

 Vector   26  Occ=0.000000D+00  E= 1.224787D+00

 Vector   27  Occ=0.000000D+00  E= 1.519876D+00

 Vector   28  Occ=0.000000D+00  E= 1.534116D+00

 Vector   29  Occ=0.000000D+00  E= 1.602315D+00

 Vector   30  Occ=0.000000D+00  E= 1.645823D+00

 Vector   31  Occ=0.000000D+00  E= 1.742662D+00

 Vector   32  Occ=0.000000D+00  E= 1.850428D+00

 Vector   33  Occ=0.000000D+00  E= 1.956070D+00

 Vector   34  Occ=0.000000D+00  E= 2.016552D+00

 Vector   35  Occ=0.000000D+00  E= 2.070617D+00

 Vector   36  Occ=0.000000D+00  E= 2.097476D+00

 Vector   37  Occ=0.000000D+00  E= 2.185454D+00

 Vector   38  Occ=0.000000D+00  E= 2.229244D+00

 Vector   39  Occ=0.000000D+00  E= 2.386106D+00

 Vector   40  Occ=0.000000D+00  E= 2.402128D+00

 Vector   41  Occ=0.000000D+00  E= 2.430384D+00

 Vector   42  Occ=0.000000D+00  E= 2.566384D+00

 Vector   43  Occ=0.000000D+00  E= 2.569298D+00

 Vector   44  Occ=0.000000D+00  E= 2.675374D+00

 Vector   45  Occ=0.000000D+00  E= 2.717611D+00

 Vector   46  Occ=0.000000D+00  E= 3.566165D+00

 Vector   47  Occ=0.000000D+00  E= 3.611151D+00

 Vector   48  Occ=0.000000D+00  E= 3.847539D+00

 Vector   49  Occ=0.000000D+00  E= 4.660064D+00

 Vector   50  Occ=0.000000D+00  E= 4.720224D+00

 Vector   51  Occ=0.000000D+00  E= 4.743302D+00

 Vector   52  Occ=0.000000D+00  E= 4.842762D+00

 Vector   53  Occ=0.000000D+00  E= 4.945101D+00

 Vector   54  Occ=0.000000D+00  E= 5.187594D+00

 Vector   55  Occ=0.000000D+00  E= 5.250504D+00

 Vector   56  Occ=0.000000D+00  E= 5.258074D+00

 Vector   57  Occ=0.000000D+00  E= 5.283929D+00

 Vector   58  Occ=0.000000D+00  E= 5.563413D+00

 Vector   59  Occ=0.000000D+00  E= 5.596199D+00

 Vector   60  Occ=0.000000D+00  E= 5.850509D+00

 Vector   61  Occ=0.000000D+00  E= 5.949476D+00

 Vector   62  Occ=0.000000D+00  E= 6.097844D+00

 Vector   63  Occ=0.000000D+00  E= 6.115812D+00

 Vector   64  Occ=0.000000D+00  E= 6.167792D+00

 Vector   65  Occ=0.000000D+00  E= 6.197998D+00

 Vector   66  Occ=0.000000D+00  E= 6.251280D+00

 Vector   67  Occ=0.000000D+00  E= 6.514949D+00

 Vector   68  Occ=0.000000D+00  E= 6.614789D+00

 Vector   69  Occ=0.000000D+00  E= 6.752997D+00

 Vector   70  Occ=0.000000D+00  E= 6.817372D+00

 Vector   71  Occ=0.000000D+00  E= 7.022949D+00

 Vector   72  Occ=0.000000D+00  E= 7.714770D+00

 Vector   73  Occ=0.000000D+00  E= 4.266742D+01

 Vector   74  Occ=0.000000D+00  E= 4.314235D+01

     Multipole analysis of the density
     ---------------------------------

     L   x y z        total         alpha         beta         nuclear
     -   - - -        -----         -----         ----         -------
     0   0 0 0     -0.000000     -9.000000     -9.000000     18.000000

     1   1 0 0     -0.402133    140.564579    140.564579   -281.531291
     1   0 1 0      0.468871    -44.310617    -44.310617     89.090106
     1   0 0 1      0.287163     -0.573582     -0.573582      1.434327

     2   2 0 0      3.824798  -2201.667027  -2201.667027   4407.158851
     2   1 1 0    -10.079052    689.884880    689.884880  -1389.848812
     2   1 0 1     -2.886783     11.335099     11.335099    -25.556980
     2   0 2 0     -4.955648   -229.888696   -229.888696    454.821743
     2   0 1 1      1.364900      5.423431      5.423431     -9.481962

 Total times  cpu:      382.3s     wall:      384.7s
