============================== echo of input deck ==============================
echo
start h2o2_514.5_00.inp
title "h2o2 roa calculations at 514.5 nm, input generated by va with delta_type=2"
charge 0

geometry units angstrom nocenter noautoz noautosym nucleus point;symmetry c1
 O -8.053976  3.049273 -0.528886
 O -8.433753  2.112082  0.567029
 H -8.943135  3.232025 -0.896292
 H -8.127885  2.635441  1.336140
end

basis spherical
* library def2-TZVP
end

 set prop:newaoresp 1
 set aor:roadata T
 set cphf:maxsub 100
 set cphf:acc 1.0d-10
 set cphf:maxiter 100

property
    response 1   0.088558
    bdtensor
    convergence 1e-9
    damping 0.0037
    giao
end

dft
 direct
 mult 1
 xc becke88 lyp
 iterations 250
 tolerances tight
 grid xfine
 convergence nolevelshifting
 convergence energy 1e-8
 convergence gradient 1e-8

end

task dft gradient
task dft property
================================================================================

 Output coordinates in angstroms (scale by  1.889725989 to convert to a.u.)

  No.       Tag          Charge          X              Y              Z
 ---- ---------------- ---------- -------------- -------------- --------------
    1 O                    8.0000    -8.05397600     3.04927300    -0.52888600
    2 O                    8.0000    -8.43375300     2.11208200     0.56702900
    3 H                    1.0000    -8.94313500     3.23202500    -0.89629200
    4 H                    1.0000    -8.12788500     2.63544100     1.33614000

         Total DFT energy =     -151.601153457323

 Vector   69  Occ=0.000000D+00  E= 6.754501D+00

 Vector   70  Occ=0.000000D+00  E= 6.816306D+00

 Vector   71  Occ=0.000000D+00  E= 7.023858D+00

 Vector   72  Occ=0.000000D+00  E= 7.714580D+00

 Vector   73  Occ=0.000000D+00  E= 4.266730D+01

 Vector   74  Occ=0.000000D+00  E= 4.314223D+01

         Total DFT energy =     -151.601153457439

                       DFT Final Molecular Orbital Analysis
                       ------------------------------------

 Vector    1  Occ=2.000000D+00  E=-1.883191D+01

 Vector    2  Occ=2.000000D+00  E=-1.883188D+01

 Vector    3  Occ=2.000000D+00  E=-1.007998D+00

 Vector    4  Occ=2.000000D+00  E=-8.191906D-01

 Vector    5  Occ=2.000000D+00  E=-4.736004D-01

 Vector    6  Occ=2.000000D+00  E=-4.330899D-01

 Vector    7  Occ=2.000000D+00  E=-3.654605D-01

 Vector    8  Occ=2.000000D+00  E=-2.755712D-01

 Vector    9  Occ=2.000000D+00  E=-2.307591D-01

 Vector   10  Occ=0.000000D+00  E=-6.024241D-02

 Vector   11  Occ=0.000000D+00  E=-3.874736D-03

 Vector   12  Occ=0.000000D+00  E= 3.972883D-02

 Vector   13  Occ=0.000000D+00  E= 3.373351D-01

 Vector   14  Occ=0.000000D+00  E= 3.443603D-01

 Vector   15  Occ=0.000000D+00  E= 3.516303D-01

 Vector   16  Occ=0.000000D+00  E= 3.726088D-01

 Vector   17  Occ=0.000000D+00  E= 4.126335D-01

 Vector   18  Occ=0.000000D+00  E= 4.425896D-01

 Vector   19  Occ=0.000000D+00  E= 4.653414D-01

 Vector   20  Occ=0.000000D+00  E= 5.216250D-01

 Vector   21  Occ=0.000000D+00  E= 5.871512D-01

 Vector   22  Occ=0.000000D+00  E= 6.693697D-01

 Vector   23  Occ=0.000000D+00  E= 1.012357D+00

 Vector   24  Occ=0.000000D+00  E= 1.080360D+00

 Vector   25  Occ=0.000000D+00  E= 1.184285D+00

 Vector   26  Occ=0.000000D+00  E= 1.224553D+00

 Vector   27  Occ=0.000000D+00  E= 1.520337D+00

 Vector   28  Occ=0.000000D+00  E= 1.533795D+00

 Vector   29  Occ=0.000000D+00  E= 1.602208D+00

 Vector   30  Occ=0.000000D+00  E= 1.646438D+00

 Vector   31  Occ=0.000000D+00  E= 1.742192D+00

 Vector   32  Occ=0.000000D+00  E= 1.850579D+00

 Vector   33  Occ=0.000000D+00  E= 1.956010D+00

 Vector   34  Occ=0.000000D+00  E= 2.016965D+00

 Vector   35  Occ=0.000000D+00  E= 2.071565D+00

 Vector   36  Occ=0.000000D+00  E= 2.096606D+00

 Vector   37  Occ=0.000000D+00  E= 2.185259D+00

 Vector   38  Occ=0.000000D+00  E= 2.229277D+00

 Vector   39  Occ=0.000000D+00  E= 2.386361D+00

 Vector   40  Occ=0.000000D+00  E= 2.402504D+00

 Vector   41  Occ=0.000000D+00  E= 2.429964D+00

 Vector   42  Occ=0.000000D+00  E= 2.567505D+00

 Vector   43  Occ=0.000000D+00  E= 2.568459D+00

 Vector   44  Occ=0.000000D+00  E= 2.675558D+00

 Vector   45  Occ=0.000000D+00  E= 2.717759D+00

 Vector   46  Occ=0.000000D+00  E= 3.566223D+00

 Vector   47  Occ=0.000000D+00  E= 3.612278D+00

 Vector   48  Occ=0.000000D+00  E= 3.847540D+00

 Vector   49  Occ=0.000000D+00  E= 4.660060D+00

 Vector   50  Occ=0.000000D+00  E= 4.720285D+00

 Vector   51  Occ=0.000000D+00  E= 4.743204D+00

 Vector   52  Occ=0.000000D+00  E= 4.842424D+00

 Vector   53  Occ=0.000000D+00  E= 4.945017D+00

 Vector   54  Occ=0.000000D+00  E= 5.188179D+00

 Vector   55  Occ=0.000000D+00  E= 5.251468D+00

 Vector   56  Occ=0.000000D+00  E= 5.259002D+00

 Vector   57  Occ=0.000000D+00  E= 5.282476D+00

 Vector   58  Occ=0.000000D+00  E= 5.566276D+00

 Vector   59  Occ=0.000000D+00  E= 5.592579D+00

 Vector   60  Occ=0.000000D+00  E= 5.851243D+00

 Vector   61  Occ=0.000000D+00  E= 5.950364D+00

 Vector   62  Occ=0.000000D+00  E= 6.098059D+00

 Vector   63  Occ=0.000000D+00  E= 6.115979D+00

 Vector   64  Occ=0.000000D+00  E= 6.170290D+00

 Vector   65  Occ=0.000000D+00  E= 6.195521D+00

 Vector   66  Occ=0.000000D+00  E= 6.251256D+00

 Vector   67  Occ=0.000000D+00  E= 6.514975D+00

 Vector   68  Occ=0.000000D+00  E= 6.614984D+00

 Vector   69  Occ=0.000000D+00  E= 6.754501D+00

 Vector   70  Occ=0.000000D+00  E= 6.816306D+00

 Vector   71  Occ=0.000000D+00  E= 7.023858D+00

 Vector   72  Occ=0.000000D+00  E= 7.714579D+00

 Vector   73  Occ=0.000000D+00  E= 4.266730D+01

 Vector   74  Occ=0.000000D+00  E= 4.314223D+01

     Multipole analysis of the density
     ---------------------------------

     L   x y z        total         alpha         beta         nuclear
     -   - - -        -----         -----         ----         -------
     0   0 0 0     -0.000000     -9.000000     -9.000000     18.000000

     1   1 0 0     -0.397214    140.560328    140.560328   -281.517870
     1   0 1 0      0.480851    -44.317713    -44.317713     89.116276
     1   0 0 1      0.273556     -0.567137     -0.567137      1.407831

     2   2 0 0      3.651100  -2201.521007  -2201.521007   4406.693114
     2   1 1 0    -10.243499    689.981264    689.981264  -1390.206027
     2   1 0 1     -2.657663     11.214016     11.214016    -25.085695
     2   0 2 0     -4.805623   -229.992426   -229.992426    455.179229
     2   0 1 1      1.298011      5.463458      5.463458     -9.628905

 Total times  cpu:      379.9s     wall:      384.7s
