============================== echo of input deck ==============================
echo
start h2o2_514.5_01.inp
title "h2o2 roa calculations at 514.5 nm, input generated by va with delta_type=2"
charge 0

geometry units angstrom nocenter noautoz noautosym nucleus point;symmetry c1
 O -8.053861  3.050620 -0.528239
 O -8.435203  2.112350  0.567300
 H -8.941116  3.215187 -0.908959
 H -8.108728  2.626644  1.334223
end

basis spherical
* library def2-TZVP
end

 set prop:newaoresp 1
 set aor:roadata T
 set cphf:maxsub 100
 set cphf:acc 1.0d-10
 set cphf:maxiter 100

property
    response 1   0.088558
    bdtensor
    convergence 1e-9
    damping 0.0037
    giao
end

dft
 direct
 mult 1
 xc becke88 lyp
 iterations 250
 tolerances tight
 grid xfine
 convergence nolevelshifting
 convergence energy 1e-8
 convergence gradient 1e-8

end

task dft gradient
task dft property
================================================================================

 Output coordinates in angstroms (scale by  1.889725989 to convert to a.u.)

  No.       Tag          Charge          X              Y              Z
 ---- ---------------- ---------- -------------- -------------- --------------
    1 O                    8.0000    -8.05386100     3.05062000    -0.52823900
    2 O                    8.0000    -8.43520300     2.11235000     0.56730000
    3 H                    1.0000    -8.94111600     3.21518700    -0.90895900
    4 H                    1.0000    -8.10872800     2.62664400     1.33422300

         Total DFT energy =     -151.601145883526

 Vector   69  Occ=0.000000D+00  E= 6.753850D+00

 Vector   70  Occ=0.000000D+00  E= 6.809922D+00

 Vector   71  Occ=0.000000D+00  E= 7.023916D+00

 Vector   72  Occ=0.000000D+00  E= 7.712854D+00

 Vector   73  Occ=0.000000D+00  E= 4.266729D+01

 Vector   74  Occ=0.000000D+00  E= 4.314132D+01

         Total DFT energy =     -151.601145883724

                       DFT Final Molecular Orbital Analysis
                       ------------------------------------

 Vector    1  Occ=2.000000D+00  E=-1.883180D+01

 Vector    2  Occ=2.000000D+00  E=-1.883177D+01

 Vector    3  Occ=2.000000D+00  E=-1.007632D+00

 Vector    4  Occ=2.000000D+00  E=-8.191829D-01

 Vector    5  Occ=2.000000D+00  E=-4.722532D-01

 Vector    6  Occ=2.000000D+00  E=-4.343549D-01

 Vector    7  Occ=2.000000D+00  E=-3.643936D-01

 Vector    8  Occ=2.000000D+00  E=-2.779744D-01

 Vector    9  Occ=2.000000D+00  E=-2.289648D-01

 Vector   10  Occ=0.000000D+00  E=-6.048896D-02

 Vector   11  Occ=0.000000D+00  E=-3.630354D-03

 Vector   12  Occ=0.000000D+00  E= 3.963196D-02

 Vector   13  Occ=0.000000D+00  E= 3.361013D-01

 Vector   14  Occ=0.000000D+00  E= 3.451116D-01

 Vector   15  Occ=0.000000D+00  E= 3.517664D-01

 Vector   16  Occ=0.000000D+00  E= 3.725918D-01

 Vector   17  Occ=0.000000D+00  E= 4.119372D-01

 Vector   18  Occ=0.000000D+00  E= 4.437953D-01

 Vector   19  Occ=0.000000D+00  E= 4.653227D-01

 Vector   20  Occ=0.000000D+00  E= 5.229081D-01

 Vector   21  Occ=0.000000D+00  E= 5.842543D-01

 Vector   22  Occ=0.000000D+00  E= 6.702643D-01

 Vector   23  Occ=0.000000D+00  E= 1.009706D+00

 Vector   24  Occ=0.000000D+00  E= 1.083667D+00

 Vector   25  Occ=0.000000D+00  E= 1.189023D+00

 Vector   26  Occ=0.000000D+00  E= 1.220417D+00

 Vector   27  Occ=0.000000D+00  E= 1.519651D+00

 Vector   28  Occ=0.000000D+00  E= 1.535702D+00

 Vector   29  Occ=0.000000D+00  E= 1.594582D+00

 Vector   30  Occ=0.000000D+00  E= 1.643712D+00

 Vector   31  Occ=0.000000D+00  E= 1.749608D+00

 Vector   32  Occ=0.000000D+00  E= 1.853543D+00

 Vector   33  Occ=0.000000D+00  E= 1.956709D+00

 Vector   34  Occ=0.000000D+00  E= 2.010020D+00

 Vector   35  Occ=0.000000D+00  E= 2.072929D+00

 Vector   36  Occ=0.000000D+00  E= 2.096794D+00

 Vector   37  Occ=0.000000D+00  E= 2.187774D+00

 Vector   38  Occ=0.000000D+00  E= 2.225446D+00

 Vector   39  Occ=0.000000D+00  E= 2.385519D+00

 Vector   40  Occ=0.000000D+00  E= 2.404362D+00

 Vector   41  Occ=0.000000D+00  E= 2.429234D+00

 Vector   42  Occ=0.000000D+00  E= 2.564971D+00

 Vector   43  Occ=0.000000D+00  E= 2.569882D+00

 Vector   44  Occ=0.000000D+00  E= 2.674308D+00

 Vector   45  Occ=0.000000D+00  E= 2.717350D+00

 Vector   46  Occ=0.000000D+00  E= 3.563955D+00

 Vector   47  Occ=0.000000D+00  E= 3.614231D+00

 Vector   48  Occ=0.000000D+00  E= 3.846863D+00

 Vector   49  Occ=0.000000D+00  E= 4.657505D+00

 Vector   50  Occ=0.000000D+00  E= 4.719298D+00

 Vector   51  Occ=0.000000D+00  E= 4.745813D+00

 Vector   52  Occ=0.000000D+00  E= 4.851205D+00

 Vector   53  Occ=0.000000D+00  E= 4.936276D+00

 Vector   54  Occ=0.000000D+00  E= 5.193195D+00

 Vector   55  Occ=0.000000D+00  E= 5.250588D+00

 Vector   56  Occ=0.000000D+00  E= 5.259802D+00

 Vector   57  Occ=0.000000D+00  E= 5.280480D+00

 Vector   58  Occ=0.000000D+00  E= 5.560734D+00

 Vector   59  Occ=0.000000D+00  E= 5.593724D+00

 Vector   60  Occ=0.000000D+00  E= 5.851291D+00

 Vector   61  Occ=0.000000D+00  E= 5.946989D+00

 Vector   62  Occ=0.000000D+00  E= 6.096935D+00

 Vector   63  Occ=0.000000D+00  E= 6.112959D+00

 Vector   64  Occ=0.000000D+00  E= 6.176615D+00

 Vector   65  Occ=0.000000D+00  E= 6.199419D+00

 Vector   66  Occ=0.000000D+00  E= 6.246815D+00

 Vector   67  Occ=0.000000D+00  E= 6.512224D+00

 Vector   68  Occ=0.000000D+00  E= 6.619006D+00

 Vector   69  Occ=0.000000D+00  E= 6.753849D+00

 Vector   70  Occ=0.000000D+00  E= 6.809921D+00

 Vector   71  Occ=0.000000D+00  E= 7.023915D+00

 Vector   72  Occ=0.000000D+00  E= 7.712854D+00

 Vector   73  Occ=0.000000D+00  E= 4.266729D+01

 Vector   74  Occ=0.000000D+00  E= 4.314132D+01

     Multipole analysis of the density
     ---------------------------------

     L   x y z        total         alpha         beta         nuclear
     -   - - -        -----         -----         ----         -------
     0   0 0 0     -0.000000     -9.000000     -9.000000     18.000000

     1   1 0 0     -0.382109    140.557963    140.557963   -281.498035
     1   0 1 0      0.462566    -44.314841    -44.314841     89.092249
     1   0 0 1      0.263154     -0.565498     -0.565498      1.394149

     2   2 0 0      3.187331  -2201.455971  -2201.455971   4406.099273
     2   1 1 0     -9.856693    689.902682    689.902682  -1389.662056
     2   1 0 1     -2.435359     11.172416     11.172416    -24.780190
     2   0 2 0     -5.024301   -229.958817   -229.958817    454.893333
     2   0 1 1      1.238166      5.480920      5.480920     -9.723675

 Total times  cpu:      381.1s     wall:      383.6s
