============================== echo of input deck ==============================
echo
start h2o2_514.5_12.inp
title "h2o2 roa calculations at 514.5 nm, input generated by va with delta_type=2"
charge 0

geometry units angstrom nocenter noautoz noautosym nucleus point;symmetry c1
 O -8.052747  3.049021 -0.528350
 O -8.434117  2.111504  0.566132
 H -8.962503  3.235668 -0.904015
 H -8.122266  2.644956  1.349580
end

basis spherical
* library def2-TZVP
end

 set prop:newaoresp 1
 set aor:roadata T
 set cphf:maxsub 100
 set cphf:acc 1.0d-10
 set cphf:maxiter 100

property
    response 1   0.088558
    bdtensor
    convergence 1e-9
    damping 0.0037
    giao
end

dft
 direct
 mult 1
 xc becke88 lyp
 iterations 250
 tolerances tight
 grid xfine
 convergence nolevelshifting
 convergence energy 1e-8
 convergence gradient 1e-8

end

task dft gradient
task dft property
================================================================================

 Output coordinates in angstroms (scale by  1.889725989 to convert to a.u.)

  No.       Tag          Charge          X              Y              Z
 ---- ---------------- ---------- -------------- -------------- --------------
    1 O                    8.0000    -8.05274700     3.04902100    -0.52835000
    2 O                    8.0000    -8.43411700     2.11150400     0.56613200
    3 H                    1.0000    -8.96250300     3.23566800    -0.90401500
    4 H                    1.0000    -8.12226600     2.64495600     1.34958000

         Total DFT energy =     -151.600483317747

 Vector   69  Occ=0.000000D+00  E= 6.753820D+00

 Vector   70  Occ=0.000000D+00  E= 6.795266D+00

 Vector   71  Occ=0.000000D+00  E= 7.004940D+00

 Vector   72  Occ=0.000000D+00  E= 7.719760D+00

 Vector   73  Occ=0.000000D+00  E= 4.266596D+01

 Vector   74  Occ=0.000000D+00  E= 4.314723D+01

         Total DFT energy =     -151.600483317783

                       DFT Final Molecular Orbital Analysis
                       ------------------------------------

 Vector    1  Occ=2.000000D+00  E=-1.883310D+01

 Vector    2  Occ=2.000000D+00  E=-1.883271D+01

 Vector    3  Occ=2.000000D+00  E=-1.004031D+00

 Vector    4  Occ=2.000000D+00  E=-8.123418D-01

 Vector    5  Occ=2.000000D+00  E=-4.694701D-01

 Vector    6  Occ=2.000000D+00  E=-4.316151D-01

 Vector    7  Occ=2.000000D+00  E=-3.645985D-01

 Vector    8  Occ=2.000000D+00  E=-2.741849D-01

 Vector    9  Occ=2.000000D+00  E=-2.294305D-01

 Vector   10  Occ=0.000000D+00  E=-5.934489D-02

 Vector   11  Occ=0.000000D+00  E=-8.094110D-03

 Vector   12  Occ=0.000000D+00  E= 3.442978D-02

 Vector   13  Occ=0.000000D+00  E= 3.295641D-01

 Vector   14  Occ=0.000000D+00  E= 3.372440D-01

 Vector   15  Occ=0.000000D+00  E= 3.510665D-01

 Vector   16  Occ=0.000000D+00  E= 3.729428D-01

 Vector   17  Occ=0.000000D+00  E= 4.114079D-01

 Vector   18  Occ=0.000000D+00  E= 4.428188D-01

 Vector   19  Occ=0.000000D+00  E= 4.620776D-01

 Vector   20  Occ=0.000000D+00  E= 5.188997D-01

 Vector   21  Occ=0.000000D+00  E= 5.863323D-01

 Vector   22  Occ=0.000000D+00  E= 6.707342D-01

 Vector   23  Occ=0.000000D+00  E= 1.011666D+00

 Vector   24  Occ=0.000000D+00  E= 1.079291D+00

 Vector   25  Occ=0.000000D+00  E= 1.182506D+00

 Vector   26  Occ=0.000000D+00  E= 1.220548D+00

 Vector   27  Occ=0.000000D+00  E= 1.529950D+00

 Vector   28  Occ=0.000000D+00  E= 1.539937D+00

 Vector   29  Occ=0.000000D+00  E= 1.597298D+00

 Vector   30  Occ=0.000000D+00  E= 1.644870D+00

 Vector   31  Occ=0.000000D+00  E= 1.734595D+00

 Vector   32  Occ=0.000000D+00  E= 1.856896D+00

 Vector   33  Occ=0.000000D+00  E= 1.944274D+00

 Vector   34  Occ=0.000000D+00  E= 2.006605D+00

 Vector   35  Occ=0.000000D+00  E= 2.062423D+00

 Vector   36  Occ=0.000000D+00  E= 2.096249D+00

 Vector   37  Occ=0.000000D+00  E= 2.187686D+00

 Vector   38  Occ=0.000000D+00  E= 2.228676D+00

 Vector   39  Occ=0.000000D+00  E= 2.377784D+00

 Vector   40  Occ=0.000000D+00  E= 2.380398D+00

 Vector   41  Occ=0.000000D+00  E= 2.423013D+00

 Vector   42  Occ=0.000000D+00  E= 2.543246D+00

 Vector   43  Occ=0.000000D+00  E= 2.557910D+00

 Vector   44  Occ=0.000000D+00  E= 2.672584D+00

 Vector   45  Occ=0.000000D+00  E= 2.711738D+00

 Vector   46  Occ=0.000000D+00  E= 3.543432D+00

 Vector   47  Occ=0.000000D+00  E= 3.585118D+00

 Vector   48  Occ=0.000000D+00  E= 3.841612D+00

 Vector   49  Occ=0.000000D+00  E= 4.659619D+00

 Vector   50  Occ=0.000000D+00  E= 4.720128D+00

 Vector   51  Occ=0.000000D+00  E= 4.740802D+00

 Vector   52  Occ=0.000000D+00  E= 4.839668D+00

 Vector   53  Occ=0.000000D+00  E= 4.936053D+00

 Vector   54  Occ=0.000000D+00  E= 5.178090D+00

 Vector   55  Occ=0.000000D+00  E= 5.236792D+00

 Vector   56  Occ=0.000000D+00  E= 5.250639D+00

 Vector   57  Occ=0.000000D+00  E= 5.276210D+00

 Vector   58  Occ=0.000000D+00  E= 5.558641D+00

 Vector   59  Occ=0.000000D+00  E= 5.587274D+00

 Vector   60  Occ=0.000000D+00  E= 5.800711D+00

 Vector   61  Occ=0.000000D+00  E= 5.894799D+00

 Vector   62  Occ=0.000000D+00  E= 6.091791D+00

 Vector   63  Occ=0.000000D+00  E= 6.115245D+00

 Vector   64  Occ=0.000000D+00  E= 6.163342D+00

 Vector   65  Occ=0.000000D+00  E= 6.191556D+00

 Vector   66  Occ=0.000000D+00  E= 6.246110D+00

 Vector   67  Occ=0.000000D+00  E= 6.507381D+00

 Vector   68  Occ=0.000000D+00  E= 6.609355D+00

 Vector   69  Occ=0.000000D+00  E= 6.753819D+00

 Vector   70  Occ=0.000000D+00  E= 6.795266D+00

 Vector   71  Occ=0.000000D+00  E= 7.004940D+00

 Vector   72  Occ=0.000000D+00  E= 7.719760D+00

 Vector   73  Occ=0.000000D+00  E= 4.266596D+01

 Vector   74  Occ=0.000000D+00  E= 4.314723D+01

     Multipole analysis of the density
     ---------------------------------

     L   x y z        total         alpha         beta         nuclear
     -   - - -        -----         -----         ----         -------
     0   0 0 0     -0.000000     -9.000000     -9.000000     18.000000

     1   1 0 0     -0.400055    140.565360    140.565360   -281.530775
     1   0 1 0      0.483790    -44.322402    -44.322402     89.128594
     1   0 0 1      0.274438     -0.569370     -0.569370      1.413177

     2   2 0 0      3.754114  -2201.730624  -2201.730624   4407.215363
     2   1 1 0    -10.302687    690.092119    690.092119  -1390.486924
     2   1 0 1     -2.647353     11.211916     11.211916    -25.071185
     2   0 2 0     -4.792624   -230.060884   -230.060884    455.329145
     2   0 1 1      1.315273      5.442853      5.442853     -9.570434

 Total times  cpu:      408.2s     wall:      410.9s
