============================== echo of input deck ==============================
echo
start h2o2_514.5_03.inp
title "h2o2 roa calculations at 514.5 nm, input generated by va with delta_type=2"
charge 0

geometry units angstrom nocenter noautoz noautosym nucleus point;symmetry c1
 O -8.055007  3.049096 -0.527595
 O -8.433624  2.110500  0.567519
 H -8.935160  3.244971 -0.910994
 H -8.121559  2.650398  1.322564
end

basis spherical
* library def2-TZVP
end

 set prop:newaoresp 1
 set aor:roadata T
 set cphf:maxsub 100
 set cphf:acc 1.0d-10
 set cphf:maxiter 100

property
    response 1   0.088558
    bdtensor
    convergence 1e-9
    damping 0.0037
    giao
end

dft
 direct
 mult 1
 xc becke88 lyp
 iterations 250
 tolerances tight
 grid xfine
 convergence nolevelshifting
 convergence energy 1e-8
 convergence gradient 1e-8

end

task dft gradient
task dft property
================================================================================

 Output coordinates in angstroms (scale by  1.889725989 to convert to a.u.)

  No.       Tag          Charge          X              Y              Z
 ---- ---------------- ---------- -------------- -------------- --------------
    1 O                    8.0000    -8.05500700     3.04909600    -0.52759500
    2 O                    8.0000    -8.43362400     2.11050000     0.56751900
    3 H                    1.0000    -8.93516000     3.24497100    -0.91099400
    4 H                    1.0000    -8.12155900     2.65039800     1.32256400

         Total DFT energy =     -151.601050061380

 Vector   69  Occ=0.000000D+00  E= 6.752996D+00

 Vector   70  Occ=0.000000D+00  E= 6.817367D+00

 Vector   71  Occ=0.000000D+00  E= 7.022951D+00

 Vector   72  Occ=0.000000D+00  E= 7.714778D+00

 Vector   73  Occ=0.000000D+00  E= 4.266742D+01

 Vector   74  Occ=0.000000D+00  E= 4.314236D+01

         Total DFT energy =     -151.601050061415

                       DFT Final Molecular Orbital Analysis
                       ------------------------------------

 Vector    1  Occ=2.000000D+00  E=-1.883237D+01

 Vector    2  Occ=2.000000D+00  E=-1.883145D+01

 Vector    3  Occ=2.000000D+00  E=-1.007970D+00

 Vector    4  Occ=2.000000D+00  E=-8.190986D-01

 Vector    5  Occ=2.000000D+00  E=-4.735243D-01

 Vector    6  Occ=2.000000D+00  E=-4.331372D-01

 Vector    7  Occ=2.000000D+00  E=-3.654129D-01

 Vector    8  Occ=2.000000D+00  E=-2.755433D-01

 Vector    9  Occ=2.000000D+00  E=-2.307301D-01

 Vector   10  Occ=0.000000D+00  E=-6.031295D-02

 Vector   11  Occ=0.000000D+00  E=-3.897643D-03

 Vector   12  Occ=0.000000D+00  E= 3.967534D-02

 Vector   13  Occ=0.000000D+00  E= 3.371660D-01

 Vector   14  Occ=0.000000D+00  E= 3.442273D-01

 Vector   15  Occ=0.000000D+00  E= 3.516052D-01

 Vector   16  Occ=0.000000D+00  E= 3.726135D-01

 Vector   17  Occ=0.000000D+00  E= 4.127751D-01

 Vector   18  Occ=0.000000D+00  E= 4.425761D-01

 Vector   19  Occ=0.000000D+00  E= 4.652566D-01

 Vector   20  Occ=0.000000D+00  E= 5.215889D-01

 Vector   21  Occ=0.000000D+00  E= 5.869690D-01

 Vector   22  Occ=0.000000D+00  E= 6.693038D-01

 Vector   23  Occ=0.000000D+00  E= 1.012283D+00

 Vector   24  Occ=0.000000D+00  E= 1.080792D+00

 Vector   25  Occ=0.000000D+00  E= 1.184162D+00

 Vector   26  Occ=0.000000D+00  E= 1.224787D+00

 Vector   27  Occ=0.000000D+00  E= 1.519875D+00

 Vector   28  Occ=0.000000D+00  E= 1.534119D+00

 Vector   29  Occ=0.000000D+00  E= 1.602320D+00

 Vector   30  Occ=0.000000D+00  E= 1.645827D+00

 Vector   31  Occ=0.000000D+00  E= 1.742667D+00

 Vector   32  Occ=0.000000D+00  E= 1.850429D+00

 Vector   33  Occ=0.000000D+00  E= 1.956074D+00

 Vector   34  Occ=0.000000D+00  E= 2.016547D+00

 Vector   35  Occ=0.000000D+00  E= 2.070615D+00

 Vector   36  Occ=0.000000D+00  E= 2.097477D+00

 Vector   37  Occ=0.000000D+00  E= 2.185454D+00

 Vector   38  Occ=0.000000D+00  E= 2.229241D+00

 Vector   39  Occ=0.000000D+00  E= 2.386103D+00

 Vector   40  Occ=0.000000D+00  E= 2.402127D+00

 Vector   41  Occ=0.000000D+00  E= 2.430391D+00

 Vector   42  Occ=0.000000D+00  E= 2.566383D+00

 Vector   43  Occ=0.000000D+00  E= 2.569301D+00

 Vector   44  Occ=0.000000D+00  E= 2.675373D+00

 Vector   45  Occ=0.000000D+00  E= 2.717611D+00

 Vector   46  Occ=0.000000D+00  E= 3.566168D+00

 Vector   47  Occ=0.000000D+00  E= 3.611151D+00

 Vector   48  Occ=0.000000D+00  E= 3.847538D+00

 Vector   49  Occ=0.000000D+00  E= 4.660064D+00

 Vector   50  Occ=0.000000D+00  E= 4.720225D+00

 Vector   51  Occ=0.000000D+00  E= 4.743302D+00

 Vector   52  Occ=0.000000D+00  E= 4.842760D+00

 Vector   53  Occ=0.000000D+00  E= 4.945100D+00

 Vector   54  Occ=0.000000D+00  E= 5.187599D+00

 Vector   55  Occ=0.000000D+00  E= 5.250504D+00

 Vector   56  Occ=0.000000D+00  E= 5.258074D+00

 Vector   57  Occ=0.000000D+00  E= 5.283937D+00

 Vector   58  Occ=0.000000D+00  E= 5.563404D+00

 Vector   59  Occ=0.000000D+00  E= 5.596199D+00

 Vector   60  Occ=0.000000D+00  E= 5.850517D+00

 Vector   61  Occ=0.000000D+00  E= 5.949479D+00

 Vector   62  Occ=0.000000D+00  E= 6.097844D+00

 Vector   63  Occ=0.000000D+00  E= 6.115813D+00

 Vector   64  Occ=0.000000D+00  E= 6.167793D+00

 Vector   65  Occ=0.000000D+00  E= 6.198004D+00

 Vector   66  Occ=0.000000D+00  E= 6.251282D+00

 Vector   67  Occ=0.000000D+00  E= 6.514954D+00

 Vector   68  Occ=0.000000D+00  E= 6.614793D+00

 Vector   69  Occ=0.000000D+00  E= 6.752996D+00

 Vector   70  Occ=0.000000D+00  E= 6.817367D+00

 Vector   71  Occ=0.000000D+00  E= 7.022951D+00

 Vector   72  Occ=0.000000D+00  E= 7.714778D+00

 Vector   73  Occ=0.000000D+00  E= 4.266742D+01

 Vector   74  Occ=0.000000D+00  E= 4.314236D+01

     Multipole analysis of the density
     ---------------------------------

     L   x y z        total         alpha         beta         nuclear
     -   - - -        -----         -----         ----         -------
     0   0 0 0     -0.000000     -9.000000     -9.000000     18.000000

     1   1 0 0     -0.392151    140.556165    140.556165   -281.504481
     1   0 1 0      0.492657    -44.324878    -44.324878     89.142413
     1   0 0 1      0.259850     -0.560734     -0.560734      1.381318

     2   2 0 0      3.472369  -2201.378408  -2201.378408   4406.229184
     2   1 1 0    -10.403489    690.078983    690.078983  -1390.561456
     2   1 0 1     -2.428125     11.093768     11.093768    -24.615660
     2   0 2 0     -4.656671   -230.097994   -230.097994    455.539318
     2   0 1 1      1.229218      5.504003      5.504003     -9.778787

 Total times  cpu:      374.4s     wall:      377.5s
