============================== echo of input deck ==============================
echo
start h2o2_514.5_08.inp
title "h2o2 roa calculations at 514.5 nm, input generated by va with delta_type=2"
charge 0

geometry units angstrom nocenter noautoz noautosym nucleus point;symmetry c1
 O -8.048320  3.062264 -0.544611
 O -8.438894  2.098465  0.582397
 H -8.947310  3.236911 -0.893449
 H -8.131904  2.640482  1.338936
end

basis spherical
* library def2-TZVP
end

 set prop:newaoresp 1
 set aor:roadata T
 set cphf:maxsub 100
 set cphf:acc 1.0d-10
 set cphf:maxiter 100

property
    response 1   0.088558
    bdtensor
    convergence 1e-9
    damping 0.0037
    giao
end

dft
 direct
 mult 1
 xc becke88 lyp
 iterations 250
 tolerances tight
 grid xfine
 convergence nolevelshifting
 convergence energy 1e-8
 convergence gradient 1e-8

end

task dft gradient
task dft property
================================================================================

 Output coordinates in angstroms (scale by  1.889725989 to convert to a.u.)

  No.       Tag          Charge          X              Y              Z
 ---- ---------------- ---------- -------------- -------------- --------------
    1 O                    8.0000    -8.04832000     3.06226400    -0.54461100
    2 O                    8.0000    -8.43889400     2.09846500     0.58239700
    3 H                    1.0000    -8.94731000     3.23691100    -0.89344900
    4 H                    1.0000    -8.13190400     2.64048200     1.33893600

         Total DFT energy =     -151.600486467319

 Vector   69  Occ=0.000000D+00  E= 6.697170D+00

 Vector   70  Occ=0.000000D+00  E= 6.765142D+00

 Vector   71  Occ=0.000000D+00  E= 6.973498D+00

 Vector   72  Occ=0.000000D+00  E= 7.599609D+00

 Vector   73  Occ=0.000000D+00  E= 4.264616D+01

 Vector   74  Occ=0.000000D+00  E= 4.309208D+01

         Total DFT energy =     -151.600486467857

                       DFT Final Molecular Orbital Analysis
                       ------------------------------------

 Vector    1  Occ=2.000000D+00  E=-1.883425D+01

 Vector    2  Occ=2.000000D+00  E=-1.883422D+01

 Vector    3  Occ=2.000000D+00  E=-9.954999D-01

 Vector    4  Occ=2.000000D+00  E=-8.252565D-01

 Vector    5  Occ=2.000000D+00  E=-4.649230D-01

 Vector    6  Occ=2.000000D+00  E=-4.310930D-01

 Vector    7  Occ=2.000000D+00  E=-3.643642D-01

 Vector    8  Occ=2.000000D+00  E=-2.779526D-01

 Vector    9  Occ=2.000000D+00  E=-2.360953D-01

 Vector   10  Occ=0.000000D+00  E=-8.158218D-02

 Vector   11  Occ=0.000000D+00  E=-4.561403D-03

 Vector   12  Occ=0.000000D+00  E= 3.772398D-02

 Vector   13  Occ=0.000000D+00  E= 3.371699D-01

 Vector   14  Occ=0.000000D+00  E= 3.428944D-01

 Vector   15  Occ=0.000000D+00  E= 3.506928D-01

 Vector   16  Occ=0.000000D+00  E= 3.719752D-01

 Vector   17  Occ=0.000000D+00  E= 4.141064D-01

 Vector   18  Occ=0.000000D+00  E= 4.412154D-01

 Vector   19  Occ=0.000000D+00  E= 4.650607D-01

 Vector   20  Occ=0.000000D+00  E= 5.201470D-01

 Vector   21  Occ=0.000000D+00  E= 5.892735D-01

 Vector   22  Occ=0.000000D+00  E= 6.641974D-01

 Vector   23  Occ=0.000000D+00  E= 1.010248D+00

 Vector   24  Occ=0.000000D+00  E= 1.080682D+00

 Vector   25  Occ=0.000000D+00  E= 1.177753D+00

 Vector   26  Occ=0.000000D+00  E= 1.219551D+00

 Vector   27  Occ=0.000000D+00  E= 1.507906D+00

 Vector   28  Occ=0.000000D+00  E= 1.539441D+00

 Vector   29  Occ=0.000000D+00  E= 1.580720D+00

 Vector   30  Occ=0.000000D+00  E= 1.625765D+00

 Vector   31  Occ=0.000000D+00  E= 1.725107D+00

 Vector   32  Occ=0.000000D+00  E= 1.853929D+00

 Vector   33  Occ=0.000000D+00  E= 1.961437D+00

 Vector   34  Occ=0.000000D+00  E= 2.007654D+00

 Vector   35  Occ=0.000000D+00  E= 2.056731D+00

 Vector   36  Occ=0.000000D+00  E= 2.092096D+00

 Vector   37  Occ=0.000000D+00  E= 2.178985D+00

 Vector   38  Occ=0.000000D+00  E= 2.218739D+00

 Vector   39  Occ=0.000000D+00  E= 2.384788D+00

 Vector   40  Occ=0.000000D+00  E= 2.400954D+00

 Vector   41  Occ=0.000000D+00  E= 2.401973D+00

 Vector   42  Occ=0.000000D+00  E= 2.548600D+00

 Vector   43  Occ=0.000000D+00  E= 2.554470D+00

 Vector   44  Occ=0.000000D+00  E= 2.662969D+00

 Vector   45  Occ=0.000000D+00  E= 2.705493D+00

 Vector   46  Occ=0.000000D+00  E= 3.559661D+00

 Vector   47  Occ=0.000000D+00  E= 3.608041D+00

 Vector   48  Occ=0.000000D+00  E= 3.760660D+00

 Vector   49  Occ=0.000000D+00  E= 4.686117D+00

 Vector   50  Occ=0.000000D+00  E= 4.734935D+00

 Vector   51  Occ=0.000000D+00  E= 4.758978D+00

 Vector   52  Occ=0.000000D+00  E= 4.863215D+00

 Vector   53  Occ=0.000000D+00  E= 4.966992D+00

 Vector   54  Occ=0.000000D+00  E= 5.178818D+00

 Vector   55  Occ=0.000000D+00  E= 5.239177D+00

 Vector   56  Occ=0.000000D+00  E= 5.248443D+00

 Vector   57  Occ=0.000000D+00  E= 5.256417D+00

 Vector   58  Occ=0.000000D+00  E= 5.482656D+00

 Vector   59  Occ=0.000000D+00  E= 5.510155D+00

 Vector   60  Occ=0.000000D+00  E= 5.826030D+00

 Vector   61  Occ=0.000000D+00  E= 5.941275D+00

 Vector   62  Occ=0.000000D+00  E= 6.041253D+00

 Vector   63  Occ=0.000000D+00  E= 6.090440D+00

 Vector   64  Occ=0.000000D+00  E= 6.162925D+00

 Vector   65  Occ=0.000000D+00  E= 6.166781D+00

 Vector   66  Occ=0.000000D+00  E= 6.243828D+00

 Vector   67  Occ=0.000000D+00  E= 6.475548D+00

 Vector   68  Occ=0.000000D+00  E= 6.593868D+00

 Vector   69  Occ=0.000000D+00  E= 6.697169D+00

 Vector   70  Occ=0.000000D+00  E= 6.765141D+00

 Vector   71  Occ=0.000000D+00  E= 6.973498D+00

 Vector   72  Occ=0.000000D+00  E= 7.599609D+00

 Vector   73  Occ=0.000000D+00  E= 4.264616D+01

 Vector   74  Occ=0.000000D+00  E= 4.309208D+01

     Multipole analysis of the density
     ---------------------------------

     L   x y z        total         alpha         beta         nuclear
     -   - - -        -----         -----         ----         -------
     0   0 0 0     -0.000000     -9.000000     -9.000000     18.000000

     1   1 0 0     -0.401609    140.561980    140.561980   -281.525569
     1   0 1 0      0.486175    -44.319699    -44.319699     89.125572
     1   0 0 1      0.276581     -0.568254     -0.568254      1.413090

     2   2 0 0      3.775833  -2201.646804  -2201.646804   4407.069440
     2   1 1 0    -10.345796    689.885180    689.885180  -1390.116156
     2   1 0 1     -2.718792     11.401440     11.401440    -25.521673
     2   0 2 0     -4.756002   -230.386649   -230.386649    456.017297
     2   0 1 1      1.310959      5.871737      5.871737    -10.432514

 Total times  cpu:      406.5s     wall:      410.7s
