============================== echo of input deck ==============================
echo
start methyloxirane_blyp-def2-tzvp_488.9_24.inp
title "methyloxirane roa calculations at 488.9 nm, input generated in va  with delta_type=2"
charge 0

geometry units angstrom nocenter noautoz noautosym nucleus point;symmetry c1
 O -0.879114 -0.180300  0.205299
 C  0.574089 -0.157528  0.122358
 C -0.185663  1.088701  0.337157
 C  1.185345 -0.520330 -1.211479
 H  1.059908 -0.605310  1.000510
 H -0.229186  1.546661  1.354864
 H -0.322434  1.769642 -0.477706
 H  2.241990 -0.215996 -1.245779
 H  1.142442 -1.606454 -1.374287
 H  0.652371 -0.027785 -2.032355
end

basis spherical
* library def2-TZVP
end

 set prop:newaoresp 1
 set aor:roadata T
 set cphf:maxsub 100
 set cphf:acc 1.0d-10
 set cphf:maxiter 100

property
    response 1   0.093196
    bdtensor
    convergence 1e-7
    damping 0.0037
    giao
end

dft
 direct
 mult 1
 xc becke88 lyp
 iterations 250
 tolerances tight
 grid xfine
 convergence nolevelshifting
 convergence energy 1e-8
 convergence gradient 1e-7

end

task dft gradient
task dft property
================================================================================

 Output coordinates in angstroms (scale by  1.889725989 to convert to a.u.)

  No.       Tag          Charge          X              Y              Z
 ---- ---------------- ---------- -------------- -------------- --------------
    1 O                    8.0000    -0.87911400    -0.18030000     0.20529900
    2 C                    6.0000     0.57408900    -0.15752800     0.12235800
    3 C                    6.0000    -0.18566300     1.08870100     0.33715700
    4 C                    6.0000     1.18534500    -0.52033000    -1.21147900
    5 H                    1.0000     1.05990800    -0.60531000     1.00051000
    6 H                    1.0000    -0.22918600     1.54666100     1.35486400
    7 H                    1.0000    -0.32243400     1.76964200    -0.47770600
    8 H                    1.0000     2.24199000    -0.21599600    -1.24577900
    9 H                    1.0000     1.14244200    -1.60645400    -1.37428700
   10 H                    1.0000     0.65237100    -0.02778500    -2.03235500

         Total DFT energy =     -193.108686934450
         Total DFT energy =     -193.108686934680

                       DFT Final Molecular Orbital Analysis
                       ------------------------------------

 Vector    1  Occ=2.000000D+00  E=-1.877984D+01

 Vector   81  Occ=0.000000D+00  E= 1.865487D+00

 Vector   82  Occ=0.000000D+00  E= 1.921145D+00

 Vector   83  Occ=0.000000D+00  E= 1.991534D+00

 Vector   84  Occ=0.000000D+00  E= 1.995281D+00

 Vector   85  Occ=0.000000D+00  E= 2.087648D+00

 Vector   86  Occ=0.000000D+00  E= 2.097280D+00

 Vector   87  Occ=0.000000D+00  E= 2.169252D+00

 Vector   88  Occ=0.000000D+00  E= 2.199266D+00

 Vector   89  Occ=0.000000D+00  E= 2.225608D+00

 Vector   90  Occ=0.000000D+00  E= 2.242062D+00

 Vector   91  Occ=0.000000D+00  E= 2.266561D+00

 Vector   92  Occ=0.000000D+00  E= 2.282247D+00

 Vector   93  Occ=0.000000D+00  E= 2.351104D+00

 Vector   94  Occ=0.000000D+00  E= 2.385664D+00

 Vector   95  Occ=0.000000D+00  E= 2.451980D+00

 Vector   96  Occ=0.000000D+00  E= 2.474591D+00

 Vector   97  Occ=0.000000D+00  E= 2.484279D+00

 Vector   98  Occ=0.000000D+00  E= 2.516972D+00

 Vector   99  Occ=0.000000D+00  E= 2.531478D+00

 Vector  100  Occ=0.000000D+00  E= 2.567691D+00

 Vector  101  Occ=0.000000D+00  E= 2.598652D+00

 Vector  102  Occ=0.000000D+00  E= 2.648348D+00

 Vector  103  Occ=0.000000D+00  E= 2.668503D+00

 Vector  104  Occ=0.000000D+00  E= 2.715807D+00

 Vector  105  Occ=0.000000D+00  E= 2.739611D+00

 Vector  106  Occ=0.000000D+00  E= 2.805596D+00

 Vector  107  Occ=0.000000D+00  E= 2.830170D+00

 Vector  108  Occ=0.000000D+00  E= 2.862033D+00

 Vector  109  Occ=0.000000D+00  E= 2.898008D+00

 Vector  110  Occ=0.000000D+00  E= 2.956551D+00

 Vector  111  Occ=0.000000D+00  E= 2.967553D+00

 Vector  112  Occ=0.000000D+00  E= 2.989003D+00

 Vector  113  Occ=0.000000D+00  E= 3.007761D+00

 Vector  114  Occ=0.000000D+00  E= 3.036674D+00

 Vector  115  Occ=0.000000D+00  E= 3.069182D+00

 Vector  116  Occ=0.000000D+00  E= 3.144876D+00

 Vector  117  Occ=0.000000D+00  E= 3.164159D+00

 Vector  118  Occ=0.000000D+00  E= 3.191527D+00

 Vector  119  Occ=0.000000D+00  E= 3.275407D+00

 Vector  120  Occ=0.000000D+00  E= 3.296817D+00

 Vector  121  Occ=0.000000D+00  E= 3.316317D+00

 Vector  122  Occ=0.000000D+00  E= 3.361782D+00

 Vector  123  Occ=0.000000D+00  E= 3.374588D+00

 Vector  124  Occ=0.000000D+00  E= 3.428573D+00

 Vector  125  Occ=0.000000D+00  E= 3.455809D+00

 Vector  126  Occ=0.000000D+00  E= 3.564570D+00

 Vector  127  Occ=0.000000D+00  E= 3.570858D+00

 Vector  128  Occ=0.000000D+00  E= 3.635781D+00

 Vector  129  Occ=0.000000D+00  E= 3.764969D+00

 Vector  130  Occ=0.000000D+00  E= 3.783620D+00

 Vector  131  Occ=0.000000D+00  E= 3.880649D+00

 Vector  132  Occ=0.000000D+00  E= 3.891659D+00

 Vector  133  Occ=0.000000D+00  E= 3.989411D+00

 Vector  134  Occ=0.000000D+00  E= 4.050088D+00

 Vector  135  Occ=0.000000D+00  E= 4.144057D+00

 Vector  136  Occ=0.000000D+00  E= 4.196105D+00

 Vector  137  Occ=0.000000D+00  E= 4.260688D+00

 Vector  138  Occ=0.000000D+00  E= 4.288801D+00

 Vector  139  Occ=0.000000D+00  E= 4.343672D+00

 Vector  140  Occ=0.000000D+00  E= 4.475459D+00

 Vector  141  Occ=0.000000D+00  E= 4.551703D+00

 Vector  142  Occ=0.000000D+00  E= 4.572179D+00

 Vector  143  Occ=0.000000D+00  E= 4.738172D+00

 Vector  144  Occ=0.000000D+00  E= 4.769538D+00

 Vector  145  Occ=0.000000D+00  E= 5.182061D+00

 Vector  146  Occ=0.000000D+00  E= 5.346640D+00

 Vector  147  Occ=0.000000D+00  E= 5.576328D+00

 Vector  148  Occ=0.000000D+00  E= 5.604984D+00

 Vector  149  Occ=0.000000D+00  E= 5.666869D+00

 Vector  150  Occ=0.000000D+00  E= 5.763694D+00

 Vector  151  Occ=0.000000D+00  E= 5.909031D+00

 Vector  152  Occ=0.000000D+00  E= 6.464579D+00

 Vector  153  Occ=0.000000D+00  E= 6.506779D+00

 Vector  154  Occ=0.000000D+00  E= 6.676703D+00

 Vector  155  Occ=0.000000D+00  E= 6.841974D+00

 Vector  156  Occ=0.000000D+00  E= 7.055415D+00

 Vector  157  Occ=0.000000D+00  E= 2.194110D+01

 Vector  158  Occ=0.000000D+00  E= 2.198058D+01

 Vector  159  Occ=0.000000D+00  E= 2.209777D+01

 Vector  160  Occ=0.000000D+00  E= 4.341423D+01

     Multipole analysis of the density
     ---------------------------------

     L   x y z        total         alpha         beta         nuclear
     -   - - -        -----         -----         ----         -------
     0   0 0 0     -0.000000    -16.000000    -16.000000     32.000000

     1   1 0 0      0.689308     -6.226684     -6.226684     13.142676
     1   0 1 0      0.326167     -1.616487     -1.616487      3.559140
     1   0 0 1     -0.068472      5.298708      5.298708    -10.665887

     2   2 0 0    -20.027240    -54.356342    -54.356342     88.685444
     2   1 1 0     -1.112429     13.892839     13.892839    -28.898106
     2   1 0 1      0.151293     26.499822     26.499822    -52.848351
     2   0 2 0    -17.832334    -40.454643    -40.454643     63.076952
     2   0 1 1      0.218464    -15.515298    -15.515298     31.249059

 Total times  cpu:      690.3s     wall:      706.6s
