============================== echo of input deck ==============================
echo
start methyloxirane_blyp-def2-tzvp_488.9_04.inp
title "methyloxirane roa calculations at 488.9 nm, input generated in va  with delta_type=2"
charge 0

geometry units angstrom nocenter noautoz noautosym nucleus point;symmetry c1
 O -0.884740 -0.172923  0.207289
 C  0.584306 -0.157366  0.126230
 C -0.192416  1.081231  0.340392
 C  1.190225 -0.522158 -1.215946
 H  1.057491 -0.610372  1.003398
 H -0.238213  1.539972  1.332379
 H -0.318778  1.775930 -0.495778
 H  2.246619 -0.220160 -1.265903
 H  1.141300 -1.607087 -1.382365
 H  0.646602 -0.025816 -2.029503
end

basis spherical
* library def2-TZVP
end

 set prop:newaoresp 1
 set aor:roadata T
 set cphf:maxsub 100
 set cphf:acc 1.0d-10
 set cphf:maxiter 100

property
    response 1   0.093196
    bdtensor
    convergence 1e-7
    damping 0.0037
    giao
end

dft
 direct
 mult 1
 xc becke88 lyp
 iterations 250
 tolerances tight
 grid xfine
 convergence nolevelshifting
 convergence energy 1e-8
 convergence gradient 1e-7

end

task dft gradient
task dft property
================================================================================

 Output coordinates in angstroms (scale by  1.889725989 to convert to a.u.)

  No.       Tag          Charge          X              Y              Z
 ---- ---------------- ---------- -------------- -------------- --------------
    1 O                    8.0000    -0.88474000    -0.17292300     0.20728900
    2 C                    6.0000     0.58430600    -0.15736600     0.12623000
    3 C                    6.0000    -0.19241600     1.08123100     0.34039200
    4 C                    6.0000     1.19022500    -0.52215800    -1.21594600
    5 H                    1.0000     1.05749100    -0.61037200     1.00339800
    6 H                    1.0000    -0.23821300     1.53997200     1.33237900
    7 H                    1.0000    -0.31877800     1.77593000    -0.49577800
    8 H                    1.0000     2.24661900    -0.22016000    -1.26590300
    9 H                    1.0000     1.14130000    -1.60708700    -1.38236500
   10 H                    1.0000     0.64660200    -0.02581600    -2.02950300

         Total DFT energy =     -193.109128036301
         Total DFT energy =     -193.109128036771

                       DFT Final Molecular Orbital Analysis
                       ------------------------------------

 Vector    1  Occ=2.000000D+00  E=-1.877956D+01

 Vector   81  Occ=0.000000D+00  E= 1.862547D+00

 Vector   82  Occ=0.000000D+00  E= 1.918457D+00

 Vector   83  Occ=0.000000D+00  E= 1.990451D+00

 Vector   84  Occ=0.000000D+00  E= 1.992880D+00

 Vector   85  Occ=0.000000D+00  E= 2.090921D+00

 Vector   86  Occ=0.000000D+00  E= 2.096732D+00

 Vector   87  Occ=0.000000D+00  E= 2.163065D+00

 Vector   88  Occ=0.000000D+00  E= 2.199251D+00

 Vector   89  Occ=0.000000D+00  E= 2.220341D+00

 Vector   90  Occ=0.000000D+00  E= 2.243330D+00

 Vector   91  Occ=0.000000D+00  E= 2.266589D+00

 Vector   92  Occ=0.000000D+00  E= 2.281939D+00

 Vector   93  Occ=0.000000D+00  E= 2.346894D+00

 Vector   94  Occ=0.000000D+00  E= 2.388478D+00

 Vector   95  Occ=0.000000D+00  E= 2.448330D+00

 Vector   96  Occ=0.000000D+00  E= 2.473789D+00

 Vector   97  Occ=0.000000D+00  E= 2.483902D+00

 Vector   98  Occ=0.000000D+00  E= 2.520872D+00

 Vector   99  Occ=0.000000D+00  E= 2.529858D+00

 Vector  100  Occ=0.000000D+00  E= 2.554627D+00

 Vector  101  Occ=0.000000D+00  E= 2.605565D+00

 Vector  102  Occ=0.000000D+00  E= 2.648286D+00

 Vector  103  Occ=0.000000D+00  E= 2.664205D+00

 Vector  104  Occ=0.000000D+00  E= 2.715610D+00

 Vector  105  Occ=0.000000D+00  E= 2.737014D+00

 Vector  106  Occ=0.000000D+00  E= 2.805517D+00

 Vector  107  Occ=0.000000D+00  E= 2.830324D+00

 Vector  108  Occ=0.000000D+00  E= 2.856583D+00

 Vector  109  Occ=0.000000D+00  E= 2.900268D+00

 Vector  110  Occ=0.000000D+00  E= 2.959955D+00

 Vector  111  Occ=0.000000D+00  E= 2.967936D+00

 Vector  112  Occ=0.000000D+00  E= 2.988607D+00

 Vector  113  Occ=0.000000D+00  E= 3.006105D+00

 Vector  114  Occ=0.000000D+00  E= 3.027903D+00

 Vector  115  Occ=0.000000D+00  E= 3.072779D+00

 Vector  116  Occ=0.000000D+00  E= 3.142536D+00

 Vector  117  Occ=0.000000D+00  E= 3.174666D+00

 Vector  118  Occ=0.000000D+00  E= 3.191668D+00

 Vector  119  Occ=0.000000D+00  E= 3.269737D+00

 Vector  120  Occ=0.000000D+00  E= 3.287497D+00

 Vector  121  Occ=0.000000D+00  E= 3.315673D+00

 Vector  122  Occ=0.000000D+00  E= 3.345790D+00

 Vector  123  Occ=0.000000D+00  E= 3.370201D+00

 Vector  124  Occ=0.000000D+00  E= 3.430980D+00

 Vector  125  Occ=0.000000D+00  E= 3.456852D+00

 Vector  126  Occ=0.000000D+00  E= 3.563556D+00

 Vector  127  Occ=0.000000D+00  E= 3.569745D+00

 Vector  128  Occ=0.000000D+00  E= 3.635331D+00

 Vector  129  Occ=0.000000D+00  E= 3.764082D+00

 Vector  130  Occ=0.000000D+00  E= 3.779650D+00

 Vector  131  Occ=0.000000D+00  E= 3.880339D+00

 Vector  132  Occ=0.000000D+00  E= 3.891947D+00

 Vector  133  Occ=0.000000D+00  E= 3.983274D+00

 Vector  134  Occ=0.000000D+00  E= 4.047036D+00

 Vector  135  Occ=0.000000D+00  E= 4.143350D+00

 Vector  136  Occ=0.000000D+00  E= 4.190087D+00

 Vector  137  Occ=0.000000D+00  E= 4.257364D+00

 Vector  138  Occ=0.000000D+00  E= 4.280652D+00

 Vector  139  Occ=0.000000D+00  E= 4.333780D+00

 Vector  140  Occ=0.000000D+00  E= 4.467643D+00

 Vector  141  Occ=0.000000D+00  E= 4.549217D+00

 Vector  142  Occ=0.000000D+00  E= 4.573163D+00

 Vector  143  Occ=0.000000D+00  E= 4.736600D+00

 Vector  144  Occ=0.000000D+00  E= 4.768680D+00

 Vector  145  Occ=0.000000D+00  E= 5.181801D+00

 Vector  146  Occ=0.000000D+00  E= 5.344762D+00

 Vector  147  Occ=0.000000D+00  E= 5.581818D+00

 Vector  148  Occ=0.000000D+00  E= 5.610177D+00

 Vector  149  Occ=0.000000D+00  E= 5.650290D+00

 Vector  150  Occ=0.000000D+00  E= 5.760939D+00

 Vector  151  Occ=0.000000D+00  E= 5.905936D+00

 Vector  152  Occ=0.000000D+00  E= 6.463137D+00

 Vector  153  Occ=0.000000D+00  E= 6.509579D+00

 Vector  154  Occ=0.000000D+00  E= 6.670513D+00

 Vector  155  Occ=0.000000D+00  E= 6.840119D+00

 Vector  156  Occ=0.000000D+00  E= 7.055793D+00

 Vector  157  Occ=0.000000D+00  E= 2.195081D+01

 Vector  158  Occ=0.000000D+00  E= 2.197402D+01

 Vector  159  Occ=0.000000D+00  E= 2.207809D+01

 Vector  160  Occ=0.000000D+00  E= 4.340771D+01

     Multipole analysis of the density
     ---------------------------------

     L   x y z        total         alpha         beta         nuclear
     -   - - -        -----         -----         ----         -------
     0   0 0 0     -0.000000    -16.000000    -16.000000     32.000000

     1   1 0 0      0.697275     -6.217963     -6.217963     13.133201
     1   0 1 0      0.313837     -1.618786     -1.618786      3.551409
     1   0 0 1     -0.060743      5.332108      5.332108    -10.724958

     2   2 0 0    -19.987986    -54.770079    -54.770079     89.552171
     2   1 1 0     -1.131248     14.127275     14.127275    -29.385797
     2   1 0 1      0.127421     26.727685     26.727685    -53.327948
     2   0 2 0    -17.883727    -40.309951    -40.309951     62.736174
     2   0 1 1      0.246959    -15.452419    -15.452419     31.151796

 Total times  cpu:      695.6s     wall:      709.9s
