============================== echo of input deck ==============================
echo
start methyloxirane_blyp-def2-tzvp_488.9_29.inp
title "methyloxirane roa calculations at 488.9 nm, input generated in va  with delta_type=2"
charge 0

geometry units angstrom nocenter noautoz noautosym nucleus point;symmetry c1
 O -0.885924 -0.182872  0.204599
 C  0.577794 -0.152152  0.120685
 C -0.180645  1.083830  0.338315
 C  1.184319 -0.517842 -1.208054
 H  1.063301 -0.594817  0.997022
 H -0.208269  1.530549  1.335737
 H -0.322545  1.782752 -0.490378
 H  2.242087 -0.219114 -1.246298
 H  1.136454 -1.604625 -1.362226
 H  0.650480 -0.028793 -2.032145
end

basis spherical
* library def2-TZVP
end

 set prop:newaoresp 1
 set aor:roadata T
 set cphf:maxsub 100
 set cphf:acc 1.0d-10
 set cphf:maxiter 100

property
    response 1   0.093196
    bdtensor
    convergence 1e-7
    damping 0.0037
    giao
end

dft
 direct
 mult 1
 xc becke88 lyp
 iterations 250
 tolerances tight
 grid xfine
 convergence nolevelshifting
 convergence energy 1e-8
 convergence gradient 1e-7

end

task dft gradient
task dft property
================================================================================

 Output coordinates in angstroms (scale by  1.889725989 to convert to a.u.)

  No.       Tag          Charge          X              Y              Z
 ---- ---------------- ---------- -------------- -------------- --------------
    1 O                    8.0000    -0.88592400    -0.18287200     0.20459900
    2 C                    6.0000     0.57779400    -0.15215200     0.12068500
    3 C                    6.0000    -0.18064500     1.08383000     0.33831500
    4 C                    6.0000     1.18431900    -0.51784200    -1.20805400
    5 H                    1.0000     1.06330100    -0.59481700     0.99702200
    6 H                    1.0000    -0.20826900     1.53054900     1.33573700
    7 H                    1.0000    -0.32254500     1.78275200    -0.49037800
    8 H                    1.0000     2.24208700    -0.21911400    -1.24629800
    9 H                    1.0000     1.13645400    -1.60462500    -1.36222600
   10 H                    1.0000     0.65048000    -0.02879300    -2.03214500

         Total DFT energy =     -193.109187875896
         Total DFT energy =     -193.109187876027

                       DFT Final Molecular Orbital Analysis
                       ------------------------------------

 Vector    1  Occ=2.000000D+00  E=-1.877933D+01

 Vector   81  Occ=0.000000D+00  E= 1.867692D+00

 Vector   82  Occ=0.000000D+00  E= 1.918314D+00

 Vector   83  Occ=0.000000D+00  E= 1.989720D+00

 Vector   84  Occ=0.000000D+00  E= 1.994989D+00

 Vector   85  Occ=0.000000D+00  E= 2.092849D+00

 Vector   86  Occ=0.000000D+00  E= 2.100999D+00

 Vector   87  Occ=0.000000D+00  E= 2.168806D+00

 Vector   88  Occ=0.000000D+00  E= 2.199148D+00

 Vector   89  Occ=0.000000D+00  E= 2.230206D+00

 Vector   90  Occ=0.000000D+00  E= 2.242901D+00

 Vector   91  Occ=0.000000D+00  E= 2.265939D+00

 Vector   92  Occ=0.000000D+00  E= 2.287883D+00

 Vector   93  Occ=0.000000D+00  E= 2.349358D+00

 Vector   94  Occ=0.000000D+00  E= 2.389477D+00

 Vector   95  Occ=0.000000D+00  E= 2.452043D+00

 Vector   96  Occ=0.000000D+00  E= 2.474946D+00

 Vector   97  Occ=0.000000D+00  E= 2.482977D+00

 Vector   98  Occ=0.000000D+00  E= 2.522876D+00

 Vector   99  Occ=0.000000D+00  E= 2.538220D+00

 Vector  100  Occ=0.000000D+00  E= 2.560849D+00

 Vector  101  Occ=0.000000D+00  E= 2.596343D+00

 Vector  102  Occ=0.000000D+00  E= 2.651595D+00

 Vector  103  Occ=0.000000D+00  E= 2.666529D+00

 Vector  104  Occ=0.000000D+00  E= 2.714324D+00

 Vector  105  Occ=0.000000D+00  E= 2.739551D+00

 Vector  106  Occ=0.000000D+00  E= 2.807276D+00

 Vector  107  Occ=0.000000D+00  E= 2.831178D+00

 Vector  108  Occ=0.000000D+00  E= 2.864144D+00

 Vector  109  Occ=0.000000D+00  E= 2.898717D+00

 Vector  110  Occ=0.000000D+00  E= 2.956925D+00

 Vector  111  Occ=0.000000D+00  E= 2.967121D+00

 Vector  112  Occ=0.000000D+00  E= 2.990356D+00

 Vector  113  Occ=0.000000D+00  E= 3.007499D+00

 Vector  114  Occ=0.000000D+00  E= 3.034834D+00

 Vector  115  Occ=0.000000D+00  E= 3.071772D+00

 Vector  116  Occ=0.000000D+00  E= 3.146562D+00

 Vector  117  Occ=0.000000D+00  E= 3.167496D+00

 Vector  118  Occ=0.000000D+00  E= 3.191217D+00

 Vector  119  Occ=0.000000D+00  E= 3.280659D+00

 Vector  120  Occ=0.000000D+00  E= 3.294023D+00

 Vector  121  Occ=0.000000D+00  E= 3.322622D+00

 Vector  122  Occ=0.000000D+00  E= 3.353758D+00

 Vector  123  Occ=0.000000D+00  E= 3.375606D+00

 Vector  124  Occ=0.000000D+00  E= 3.431670D+00

 Vector  125  Occ=0.000000D+00  E= 3.462293D+00

 Vector  126  Occ=0.000000D+00  E= 3.564114D+00

 Vector  127  Occ=0.000000D+00  E= 3.575993D+00

 Vector  128  Occ=0.000000D+00  E= 3.641251D+00

 Vector  129  Occ=0.000000D+00  E= 3.772996D+00

 Vector  130  Occ=0.000000D+00  E= 3.787177D+00

 Vector  131  Occ=0.000000D+00  E= 3.887370D+00

 Vector  132  Occ=0.000000D+00  E= 3.900214D+00

 Vector  133  Occ=0.000000D+00  E= 3.996458D+00

 Vector  134  Occ=0.000000D+00  E= 4.050557D+00

 Vector  135  Occ=0.000000D+00  E= 4.150330D+00

 Vector  136  Occ=0.000000D+00  E= 4.200982D+00

 Vector  137  Occ=0.000000D+00  E= 4.270117D+00

 Vector  138  Occ=0.000000D+00  E= 4.293010D+00

 Vector  139  Occ=0.000000D+00  E= 4.337757D+00

 Vector  140  Occ=0.000000D+00  E= 4.475220D+00

 Vector  141  Occ=0.000000D+00  E= 4.567866D+00

 Vector  142  Occ=0.000000D+00  E= 4.577724D+00

 Vector  143  Occ=0.000000D+00  E= 4.735056D+00

 Vector  144  Occ=0.000000D+00  E= 4.771271D+00

 Vector  145  Occ=0.000000D+00  E= 5.176058D+00

 Vector  146  Occ=0.000000D+00  E= 5.340312D+00

 Vector  147  Occ=0.000000D+00  E= 5.570807D+00

 Vector  148  Occ=0.000000D+00  E= 5.593880D+00

 Vector  149  Occ=0.000000D+00  E= 5.651291D+00

 Vector  150  Occ=0.000000D+00  E= 5.754972D+00

 Vector  151  Occ=0.000000D+00  E= 5.898591D+00

 Vector  152  Occ=0.000000D+00  E= 6.455299D+00

 Vector  153  Occ=0.000000D+00  E= 6.499845D+00

 Vector  154  Occ=0.000000D+00  E= 6.671711D+00

 Vector  155  Occ=0.000000D+00  E= 6.841704D+00

 Vector  156  Occ=0.000000D+00  E= 7.055238D+00

 Vector  157  Occ=0.000000D+00  E= 2.194723D+01

 Vector  158  Occ=0.000000D+00  E= 2.198104D+01

 Vector  159  Occ=0.000000D+00  E= 2.211015D+01

 Vector  160  Occ=0.000000D+00  E= 4.340687D+01

     Multipole analysis of the density
     ---------------------------------

     L   x y z        total         alpha         beta         nuclear
     -   - - -        -----         -----         ----         -------
     0   0 0 0     -0.000000    -16.000000    -16.000000     32.000000

     1   1 0 0      0.710659     -6.223680     -6.223680     13.158018
     1   0 1 0      0.331403     -1.616302     -1.616302      3.564008
     1   0 0 1     -0.058701      5.314624      5.314624    -10.687950

     2   2 0 0    -20.013979    -54.490054    -54.490054     88.966129
     2   1 1 0     -1.090567     13.642017     13.642017    -28.374601
     2   1 0 1      0.175361     26.347286     26.347286    -52.519210
     2   0 2 0    -17.844732    -40.279487    -40.279487     62.714243
     2   0 1 1      0.247150    -15.300998    -15.300998     30.849145

 Total times  cpu:      623.6s     wall:      637.7s
