============================== echo of input deck ==============================
echo
start methyloxirane_blyp-def2-tzvp_488.9_47.inp
title "methyloxirane roa calculations at 488.9 nm, input generated in va  with delta_type=2"
charge 0

geometry units angstrom nocenter noautoz noautosym nucleus point;symmetry c1
 O -0.879112 -0.180299  0.205244
 C  0.574558 -0.158004  0.123244
 C -0.185533  1.088408  0.339911
 C  1.186784 -0.521739 -1.210259
 H  1.054647 -0.600067  0.990557
 H -0.228067  1.538693  1.336901
 H -0.325253  1.781611 -0.492054
 H  2.234802 -0.218464 -1.245279
 H  1.143191 -1.597346 -1.372707
 H  0.641479 -0.017733 -2.049164
end

basis spherical
* library def2-TZVP
end

 set prop:newaoresp 1
 set aor:roadata T
 set cphf:maxsub 100
 set cphf:acc 1.0d-10
 set cphf:maxiter 100

property
    response 1   0.093196
    bdtensor
    convergence 1e-7
    damping 0.0037
    giao
end

dft
 direct
 mult 1
 xc becke88 lyp
 iterations 250
 tolerances tight
 grid xfine
 convergence nolevelshifting
 convergence energy 1e-8
 convergence gradient 1e-7

end

task dft gradient
task dft property
================================================================================

 Output coordinates in angstroms (scale by  1.889725989 to convert to a.u.)

  No.       Tag          Charge          X              Y              Z
 ---- ---------------- ---------- -------------- -------------- --------------
    1 O                    8.0000    -0.87911200    -0.18029900     0.20524400
    2 C                    6.0000     0.57455800    -0.15800400     0.12324400
    3 C                    6.0000    -0.18553300     1.08840800     0.33991100
    4 C                    6.0000     1.18678400    -0.52173900    -1.21025900
    5 H                    1.0000     1.05464700    -0.60006700     0.99055700
    6 H                    1.0000    -0.22806700     1.53869300     1.33690100
    7 H                    1.0000    -0.32525300     1.78161100    -0.49205400
    8 H                    1.0000     2.23480200    -0.21846400    -1.24527900
    9 H                    1.0000     1.14319100    -1.59734600    -1.37270700
   10 H                    1.0000     0.64147900    -0.01773300    -2.04916400

         Total DFT energy =     -193.108863533423
         Total DFT energy =     -193.108863533608

                       DFT Final Molecular Orbital Analysis
                       ------------------------------------

 Vector    1  Occ=2.000000D+00  E=-1.877952D+01

 Vector   81  Occ=0.000000D+00  E= 1.864944D+00

 Vector   82  Occ=0.000000D+00  E= 1.922197D+00

 Vector   83  Occ=0.000000D+00  E= 1.990035D+00

 Vector   84  Occ=0.000000D+00  E= 1.995543D+00

 Vector   85  Occ=0.000000D+00  E= 2.091301D+00

 Vector   86  Occ=0.000000D+00  E= 2.097426D+00

 Vector   87  Occ=0.000000D+00  E= 2.164901D+00

 Vector   88  Occ=0.000000D+00  E= 2.201632D+00

 Vector   89  Occ=0.000000D+00  E= 2.228825D+00

 Vector   90  Occ=0.000000D+00  E= 2.242567D+00

 Vector   91  Occ=0.000000D+00  E= 2.267602D+00

 Vector   92  Occ=0.000000D+00  E= 2.284935D+00

 Vector   93  Occ=0.000000D+00  E= 2.351008D+00

 Vector   94  Occ=0.000000D+00  E= 2.387020D+00

 Vector   95  Occ=0.000000D+00  E= 2.452464D+00

 Vector   96  Occ=0.000000D+00  E= 2.474113D+00

 Vector   97  Occ=0.000000D+00  E= 2.482559D+00

 Vector   98  Occ=0.000000D+00  E= 2.525156D+00

 Vector   99  Occ=0.000000D+00  E= 2.532177D+00

 Vector  100  Occ=0.000000D+00  E= 2.556878D+00

 Vector  101  Occ=0.000000D+00  E= 2.599198D+00

 Vector  102  Occ=0.000000D+00  E= 2.651395D+00

 Vector  103  Occ=0.000000D+00  E= 2.671680D+00

 Vector  104  Occ=0.000000D+00  E= 2.721270D+00

 Vector  105  Occ=0.000000D+00  E= 2.738805D+00

 Vector  106  Occ=0.000000D+00  E= 2.809447D+00

 Vector  107  Occ=0.000000D+00  E= 2.833134D+00

 Vector  108  Occ=0.000000D+00  E= 2.863250D+00

 Vector  109  Occ=0.000000D+00  E= 2.899135D+00

 Vector  110  Occ=0.000000D+00  E= 2.959879D+00

 Vector  111  Occ=0.000000D+00  E= 2.966423D+00

 Vector  112  Occ=0.000000D+00  E= 2.988069D+00

 Vector  113  Occ=0.000000D+00  E= 3.006889D+00

 Vector  114  Occ=0.000000D+00  E= 3.035407D+00

 Vector  115  Occ=0.000000D+00  E= 3.067493D+00

 Vector  116  Occ=0.000000D+00  E= 3.149675D+00

 Vector  117  Occ=0.000000D+00  E= 3.164908D+00

 Vector  118  Occ=0.000000D+00  E= 3.189871D+00

 Vector  119  Occ=0.000000D+00  E= 3.275851D+00

 Vector  120  Occ=0.000000D+00  E= 3.294517D+00

 Vector  121  Occ=0.000000D+00  E= 3.315804D+00

 Vector  122  Occ=0.000000D+00  E= 3.356458D+00

 Vector  123  Occ=0.000000D+00  E= 3.373176D+00

 Vector  124  Occ=0.000000D+00  E= 3.430107D+00

 Vector  125  Occ=0.000000D+00  E= 3.452647D+00

 Vector  126  Occ=0.000000D+00  E= 3.566314D+00

 Vector  127  Occ=0.000000D+00  E= 3.572811D+00

 Vector  128  Occ=0.000000D+00  E= 3.640050D+00

 Vector  129  Occ=0.000000D+00  E= 3.763109D+00

 Vector  130  Occ=0.000000D+00  E= 3.783945D+00

 Vector  131  Occ=0.000000D+00  E= 3.882295D+00

 Vector  132  Occ=0.000000D+00  E= 3.901484D+00

 Vector  133  Occ=0.000000D+00  E= 3.983500D+00

 Vector  134  Occ=0.000000D+00  E= 4.048243D+00

 Vector  135  Occ=0.000000D+00  E= 4.150366D+00

 Vector  136  Occ=0.000000D+00  E= 4.191154D+00

 Vector  137  Occ=0.000000D+00  E= 4.266608D+00

 Vector  138  Occ=0.000000D+00  E= 4.293876D+00

 Vector  139  Occ=0.000000D+00  E= 4.340870D+00

 Vector  140  Occ=0.000000D+00  E= 4.459937D+00

 Vector  141  Occ=0.000000D+00  E= 4.566854D+00

 Vector  142  Occ=0.000000D+00  E= 4.572102D+00

 Vector  143  Occ=0.000000D+00  E= 4.738095D+00

 Vector  144  Occ=0.000000D+00  E= 4.770478D+00

 Vector  145  Occ=0.000000D+00  E= 5.182306D+00

 Vector  146  Occ=0.000000D+00  E= 5.346935D+00

 Vector  147  Occ=0.000000D+00  E= 5.577934D+00

 Vector  148  Occ=0.000000D+00  E= 5.604361D+00

 Vector  149  Occ=0.000000D+00  E= 5.667271D+00

 Vector  150  Occ=0.000000D+00  E= 5.763987D+00

 Vector  151  Occ=0.000000D+00  E= 5.909297D+00

 Vector  152  Occ=0.000000D+00  E= 6.464836D+00

 Vector  153  Occ=0.000000D+00  E= 6.507513D+00

 Vector  154  Occ=0.000000D+00  E= 6.676397D+00

 Vector  155  Occ=0.000000D+00  E= 6.842211D+00

 Vector  156  Occ=0.000000D+00  E= 7.055847D+00

 Vector  157  Occ=0.000000D+00  E= 2.194000D+01

 Vector  158  Occ=0.000000D+00  E= 2.198198D+01

 Vector  159  Occ=0.000000D+00  E= 2.211079D+01

 Vector  160  Occ=0.000000D+00  E= 4.341381D+01

     Multipole analysis of the density
     ---------------------------------

     L   x y z        total         alpha         beta         nuclear
     -   - - -        -----         -----         ----         -------
     0   0 0 0     -0.000000    -16.000000    -16.000000     32.000000

     1   1 0 0      0.696530     -6.211689     -6.211689     13.119908
     1   0 1 0      0.320333     -1.631570     -1.631570      3.583472
     1   0 0 1     -0.051636      5.333840      5.333840    -10.719316

     2   2 0 0    -20.001079    -54.287955    -54.287955     88.574831
     2   1 1 0     -1.130294     13.884026     13.884026    -28.898346
     2   1 0 1      0.160876     26.473757     26.473757    -52.786637
     2   0 2 0    -17.825413    -40.431392    -40.431392     63.037371
     2   0 1 1      0.250083    -15.378077    -15.378077     31.006236

 Total times  cpu:      690.1s     wall:      708.7s
