============================== echo of input deck ==============================
echo
start methyloxirane_blyp-def2-tzvp_488.9_36.inp
title "methyloxirane roa calculations at 488.9 nm, input generated in va  with delta_type=2"
charge 0

geometry units angstrom nocenter noautoz noautosym nucleus point;symmetry c1
 O -0.878829 -0.178906  0.204938
 C  0.571872 -0.158615  0.116986
 C -0.184636  1.086355  0.343781
 C  1.187232 -0.520877 -1.208355
 H  1.068879 -0.585586  0.995236
 H -0.238340  1.547688  1.333498
 H -0.320848  1.768747 -0.499734
 H  2.242217 -0.214759 -1.251189
 H  1.136804 -1.605435 -1.376720
 H  0.643563 -0.024618 -2.022205
end

basis spherical
* library def2-TZVP
end

 set prop:newaoresp 1
 set aor:roadata T
 set cphf:maxsub 100
 set cphf:acc 1.0d-10
 set cphf:maxiter 100

property
    response 1   0.093196
    bdtensor
    convergence 1e-7
    damping 0.0037
    giao
end

dft
 direct
 mult 1
 xc becke88 lyp
 iterations 250
 tolerances tight
 grid xfine
 convergence nolevelshifting
 convergence energy 1e-8
 convergence gradient 1e-7

end

task dft gradient
task dft property
================================================================================

 Output coordinates in angstroms (scale by  1.889725989 to convert to a.u.)

  No.       Tag          Charge          X              Y              Z
 ---- ---------------- ---------- -------------- -------------- --------------
    1 O                    8.0000    -0.87882900    -0.17890600     0.20493800
    2 C                    6.0000     0.57187200    -0.15861500     0.11698600
    3 C                    6.0000    -0.18463600     1.08635500     0.34378100
    4 C                    6.0000     1.18723200    -0.52087700    -1.20835500
    5 H                    1.0000     1.06887900    -0.58558600     0.99523600
    6 H                    1.0000    -0.23834000     1.54768800     1.33349800
    7 H                    1.0000    -0.32084800     1.76874700    -0.49973400
    8 H                    1.0000     2.24221700    -0.21475900    -1.25118900
    9 H                    1.0000     1.13680400    -1.60543500    -1.37672000
   10 H                    1.0000     0.64356300    -0.02461800    -2.02220500

         Total DFT energy =     -193.109133848807
         Total DFT energy =     -193.109133848771

                       DFT Final Molecular Orbital Analysis
                       ------------------------------------

 Vector    1  Occ=2.000000D+00  E=-1.878019D+01

 Vector   81  Occ=0.000000D+00  E= 1.868508D+00

 Vector   82  Occ=0.000000D+00  E= 1.923292D+00

 Vector   83  Occ=0.000000D+00  E= 1.991778D+00

 Vector   84  Occ=0.000000D+00  E= 1.995727D+00

 Vector   85  Occ=0.000000D+00  E= 2.090617D+00

 Vector   86  Occ=0.000000D+00  E= 2.097872D+00

 Vector   87  Occ=0.000000D+00  E= 2.169177D+00

 Vector   88  Occ=0.000000D+00  E= 2.199978D+00

 Vector   89  Occ=0.000000D+00  E= 2.228587D+00

 Vector   90  Occ=0.000000D+00  E= 2.243283D+00

 Vector   91  Occ=0.000000D+00  E= 2.268866D+00

 Vector   92  Occ=0.000000D+00  E= 2.283321D+00

 Vector   93  Occ=0.000000D+00  E= 2.356134D+00

 Vector   94  Occ=0.000000D+00  E= 2.386529D+00

 Vector   95  Occ=0.000000D+00  E= 2.453822D+00

 Vector   96  Occ=0.000000D+00  E= 2.475587D+00

 Vector   97  Occ=0.000000D+00  E= 2.483989D+00

 Vector   98  Occ=0.000000D+00  E= 2.526350D+00

 Vector   99  Occ=0.000000D+00  E= 2.531952D+00

 Vector  100  Occ=0.000000D+00  E= 2.565176D+00

 Vector  101  Occ=0.000000D+00  E= 2.603696D+00

 Vector  102  Occ=0.000000D+00  E= 2.655068D+00

 Vector  103  Occ=0.000000D+00  E= 2.669270D+00

 Vector  104  Occ=0.000000D+00  E= 2.712005D+00

 Vector  105  Occ=0.000000D+00  E= 2.737946D+00

 Vector  106  Occ=0.000000D+00  E= 2.805853D+00

 Vector  107  Occ=0.000000D+00  E= 2.833829D+00

 Vector  108  Occ=0.000000D+00  E= 2.862164D+00

 Vector  109  Occ=0.000000D+00  E= 2.900301D+00

 Vector  110  Occ=0.000000D+00  E= 2.961639D+00

 Vector  111  Occ=0.000000D+00  E= 2.964310D+00

 Vector  112  Occ=0.000000D+00  E= 2.985309D+00

 Vector  113  Occ=0.000000D+00  E= 3.010034D+00

 Vector  114  Occ=0.000000D+00  E= 3.040428D+00

 Vector  115  Occ=0.000000D+00  E= 3.064750D+00

 Vector  116  Occ=0.000000D+00  E= 3.149357D+00

 Vector  117  Occ=0.000000D+00  E= 3.171420D+00

 Vector  118  Occ=0.000000D+00  E= 3.193353D+00

 Vector  119  Occ=0.000000D+00  E= 3.282366D+00

 Vector  120  Occ=0.000000D+00  E= 3.291315D+00

 Vector  121  Occ=0.000000D+00  E= 3.321801D+00

 Vector  122  Occ=0.000000D+00  E= 3.356089D+00

 Vector  123  Occ=0.000000D+00  E= 3.373278D+00

 Vector  124  Occ=0.000000D+00  E= 3.440232D+00

 Vector  125  Occ=0.000000D+00  E= 3.463169D+00

 Vector  126  Occ=0.000000D+00  E= 3.560863D+00

 Vector  127  Occ=0.000000D+00  E= 3.575217D+00

 Vector  128  Occ=0.000000D+00  E= 3.639072D+00

 Vector  129  Occ=0.000000D+00  E= 3.764468D+00

 Vector  130  Occ=0.000000D+00  E= 3.787138D+00

 Vector  131  Occ=0.000000D+00  E= 3.885205D+00

 Vector  132  Occ=0.000000D+00  E= 3.903530D+00

 Vector  133  Occ=0.000000D+00  E= 3.978585D+00

 Vector  134  Occ=0.000000D+00  E= 4.054896D+00

 Vector  135  Occ=0.000000D+00  E= 4.141528D+00

 Vector  136  Occ=0.000000D+00  E= 4.200169D+00

 Vector  137  Occ=0.000000D+00  E= 4.262657D+00

 Vector  138  Occ=0.000000D+00  E= 4.291357D+00

 Vector  139  Occ=0.000000D+00  E= 4.352815D+00

 Vector  140  Occ=0.000000D+00  E= 4.480814D+00

 Vector  141  Occ=0.000000D+00  E= 4.559240D+00

 Vector  142  Occ=0.000000D+00  E= 4.576200D+00

 Vector  143  Occ=0.000000D+00  E= 4.738674D+00

 Vector  144  Occ=0.000000D+00  E= 4.773751D+00

 Vector  145  Occ=0.000000D+00  E= 5.182998D+00

 Vector  146  Occ=0.000000D+00  E= 5.348736D+00

 Vector  147  Occ=0.000000D+00  E= 5.581921D+00

 Vector  148  Occ=0.000000D+00  E= 5.604514D+00

 Vector  149  Occ=0.000000D+00  E= 5.674425D+00

 Vector  150  Occ=0.000000D+00  E= 5.768031D+00

 Vector  151  Occ=0.000000D+00  E= 5.912682D+00

 Vector  152  Occ=0.000000D+00  E= 6.465891D+00

 Vector  153  Occ=0.000000D+00  E= 6.509348D+00

 Vector  154  Occ=0.000000D+00  E= 6.677069D+00

 Vector  155  Occ=0.000000D+00  E= 6.842718D+00

 Vector  156  Occ=0.000000D+00  E= 7.055062D+00

 Vector  157  Occ=0.000000D+00  E= 2.194618D+01

 Vector  158  Occ=0.000000D+00  E= 2.198614D+01

 Vector  159  Occ=0.000000D+00  E= 2.211366D+01

 Vector  160  Occ=0.000000D+00  E= 4.341788D+01

     Multipole analysis of the density
     ---------------------------------

     L   x y z        total         alpha         beta         nuclear
     -   - - -        -----         -----         ----         -------
     0   0 0 0     -0.000000    -16.000000    -16.000000     32.000000

     1   1 0 0      0.689570     -6.220549     -6.220549     13.130668
     1   0 1 0      0.325070     -1.628894     -1.628894      3.582858
     1   0 0 1     -0.058240      5.325549      5.325549    -10.709338

     2   2 0 0    -19.985132    -54.343213    -54.343213     88.701295
     2   1 1 0     -1.096587     13.887832     13.887832    -28.872252
     2   1 0 1      0.122245     26.475365     26.475365    -52.828485
     2   0 2 0    -17.866652    -40.370754    -40.370754     62.874856
     2   0 1 1      0.306245    -15.449651    -15.449651     31.205547

 Total times  cpu:      693.9s     wall:      710.9s
