============================== echo of input deck ==============================
echo
start methyloxirane_blyp-def2-tzvp_488.9_38.inp
title "methyloxirane roa calculations at 488.9 nm, input generated in va  with delta_type=2"
charge 0

geometry units angstrom nocenter noautoz noautosym nucleus point;symmetry c1
 O -0.878728 -0.179772  0.205088
 C  0.571986 -0.155530  0.123919
 C -0.185041  1.087519  0.339698
 C  1.184321 -0.520457 -1.207201
 H  1.067749 -0.610156  0.988975
 H -0.227815  1.532194  1.337049
 H -0.326917  1.777802 -0.495969
 H  2.241100 -0.219177 -1.266670
 H  1.149314 -1.603612 -1.391717
 H  0.665368 -0.032882 -2.042865
end

basis spherical
* library def2-TZVP
end

 set prop:newaoresp 1
 set aor:roadata T
 set cphf:maxsub 100
 set cphf:acc 1.0d-10
 set cphf:maxiter 100

property
    response 1   0.093196
    bdtensor
    convergence 1e-7
    damping 0.0037
    giao
end

dft
 direct
 mult 1
 xc becke88 lyp
 iterations 250
 tolerances tight
 grid xfine
 convergence nolevelshifting
 convergence energy 1e-8
 convergence gradient 1e-7

end

task dft gradient
task dft property
================================================================================

 Output coordinates in angstroms (scale by  1.889725989 to convert to a.u.)

  No.       Tag          Charge          X              Y              Z
 ---- ---------------- ---------- -------------- -------------- --------------
    1 O                    8.0000    -0.87872800    -0.17977200     0.20508800
    2 C                    6.0000     0.57198600    -0.15553000     0.12391900
    3 C                    6.0000    -0.18504100     1.08751900     0.33969800
    4 C                    6.0000     1.18432100    -0.52045700    -1.20720100
    5 H                    1.0000     1.06774900    -0.61015600     0.98897500
    6 H                    1.0000    -0.22781500     1.53219400     1.33704900
    7 H                    1.0000    -0.32691700     1.77780200    -0.49596900
    8 H                    1.0000     2.24110000    -0.21917700    -1.26667000
    9 H                    1.0000     1.14931400    -1.60361200    -1.39171700
   10 H                    1.0000     0.66536800    -0.03288200    -2.04286500

         Total DFT energy =     -193.109089825759
         Total DFT energy =     -193.109089825736

                       DFT Final Molecular Orbital Analysis
                       ------------------------------------

 Vector    1  Occ=2.000000D+00  E=-1.878007D+01

 Vector   81  Occ=0.000000D+00  E= 1.868259D+00

 Vector   82  Occ=0.000000D+00  E= 1.922969D+00

 Vector   83  Occ=0.000000D+00  E= 1.990579D+00

 Vector   84  Occ=0.000000D+00  E= 1.995780D+00

 Vector   85  Occ=0.000000D+00  E= 2.090275D+00

 Vector   86  Occ=0.000000D+00  E= 2.096271D+00

 Vector   87  Occ=0.000000D+00  E= 2.165755D+00

 Vector   88  Occ=0.000000D+00  E= 2.205879D+00

 Vector   89  Occ=0.000000D+00  E= 2.226805D+00

 Vector   90  Occ=0.000000D+00  E= 2.249824D+00

 Vector   91  Occ=0.000000D+00  E= 2.275001D+00

 Vector   92  Occ=0.000000D+00  E= 2.282517D+00

 Vector   93  Occ=0.000000D+00  E= 2.351283D+00

 Vector   94  Occ=0.000000D+00  E= 2.386843D+00

 Vector   95  Occ=0.000000D+00  E= 2.453941D+00

 Vector   96  Occ=0.000000D+00  E= 2.479829D+00

 Vector   97  Occ=0.000000D+00  E= 2.487379D+00

 Vector   98  Occ=0.000000D+00  E= 2.523929D+00

 Vector   99  Occ=0.000000D+00  E= 2.535872D+00

 Vector  100  Occ=0.000000D+00  E= 2.561388D+00

 Vector  101  Occ=0.000000D+00  E= 2.597282D+00

 Vector  102  Occ=0.000000D+00  E= 2.644039D+00

 Vector  103  Occ=0.000000D+00  E= 2.669073D+00

 Vector  104  Occ=0.000000D+00  E= 2.717606D+00

 Vector  105  Occ=0.000000D+00  E= 2.741830D+00

 Vector  106  Occ=0.000000D+00  E= 2.807463D+00

 Vector  107  Occ=0.000000D+00  E= 2.833298D+00

 Vector  108  Occ=0.000000D+00  E= 2.860555D+00

 Vector  109  Occ=0.000000D+00  E= 2.895981D+00

 Vector  110  Occ=0.000000D+00  E= 2.959964D+00

 Vector  111  Occ=0.000000D+00  E= 2.965795D+00

 Vector  112  Occ=0.000000D+00  E= 2.985305D+00

 Vector  113  Occ=0.000000D+00  E= 3.005377D+00

 Vector  114  Occ=0.000000D+00  E= 3.033335D+00

 Vector  115  Occ=0.000000D+00  E= 3.066821D+00

 Vector  116  Occ=0.000000D+00  E= 3.144197D+00

 Vector  117  Occ=0.000000D+00  E= 3.169688D+00

 Vector  118  Occ=0.000000D+00  E= 3.186092D+00

 Vector  119  Occ=0.000000D+00  E= 3.279388D+00

 Vector  120  Occ=0.000000D+00  E= 3.284582D+00

 Vector  121  Occ=0.000000D+00  E= 3.312378D+00

 Vector  122  Occ=0.000000D+00  E= 3.351092D+00

 Vector  123  Occ=0.000000D+00  E= 3.376131D+00

 Vector  124  Occ=0.000000D+00  E= 3.429811D+00

 Vector  125  Occ=0.000000D+00  E= 3.464443D+00

 Vector  126  Occ=0.000000D+00  E= 3.561076D+00

 Vector  127  Occ=0.000000D+00  E= 3.574316D+00

 Vector  128  Occ=0.000000D+00  E= 3.637781D+00

 Vector  129  Occ=0.000000D+00  E= 3.772288D+00

 Vector  130  Occ=0.000000D+00  E= 3.785931D+00

 Vector  131  Occ=0.000000D+00  E= 3.891817D+00

 Vector  132  Occ=0.000000D+00  E= 3.897859D+00

 Vector  133  Occ=0.000000D+00  E= 3.986206D+00

 Vector  134  Occ=0.000000D+00  E= 4.047665D+00

 Vector  135  Occ=0.000000D+00  E= 4.145735D+00

 Vector  136  Occ=0.000000D+00  E= 4.206694D+00

 Vector  137  Occ=0.000000D+00  E= 4.256463D+00

 Vector  138  Occ=0.000000D+00  E= 4.293289D+00

 Vector  139  Occ=0.000000D+00  E= 4.332832D+00

 Vector  140  Occ=0.000000D+00  E= 4.472965D+00

 Vector  141  Occ=0.000000D+00  E= 4.563492D+00

 Vector  142  Occ=0.000000D+00  E= 4.572333D+00

 Vector  143  Occ=0.000000D+00  E= 4.738603D+00

 Vector  144  Occ=0.000000D+00  E= 4.770962D+00

 Vector  145  Occ=0.000000D+00  E= 5.182641D+00

 Vector  146  Occ=0.000000D+00  E= 5.347446D+00

 Vector  147  Occ=0.000000D+00  E= 5.579622D+00

 Vector  148  Occ=0.000000D+00  E= 5.605925D+00

 Vector  149  Occ=0.000000D+00  E= 5.668944D+00

 Vector  150  Occ=0.000000D+00  E= 5.766999D+00

 Vector  151  Occ=0.000000D+00  E= 5.912100D+00

 Vector  152  Occ=0.000000D+00  E= 6.464751D+00

 Vector  153  Occ=0.000000D+00  E= 6.508181D+00

 Vector  154  Occ=0.000000D+00  E= 6.678263D+00

 Vector  155  Occ=0.000000D+00  E= 6.842554D+00

 Vector  156  Occ=0.000000D+00  E= 7.054981D+00

 Vector  157  Occ=0.000000D+00  E= 2.194569D+01

 Vector  158  Occ=0.000000D+00  E= 2.198596D+01

 Vector  159  Occ=0.000000D+00  E= 2.211064D+01

 Vector  160  Occ=0.000000D+00  E= 4.341718D+01

     Multipole analysis of the density
     ---------------------------------

     L   x y z        total         alpha         beta         nuclear
     -   - - -        -----         -----         ----         -------
     0   0 0 0     -0.000000    -16.000000    -16.000000     32.000000

     1   1 0 0      0.686429     -6.239241     -6.239241     13.164910
     1   0 1 0      0.328202     -1.607692     -1.607692      3.543586
     1   0 0 1     -0.059024      5.348645      5.348645    -10.756315

     2   2 0 0    -20.023803    -54.376088    -54.376088     88.728372
     2   1 1 0     -1.121804     13.926221     13.926221    -28.974247
     2   1 0 1      0.112351     26.581819     26.581819    -53.051286
     2   0 2 0    -17.847339    -40.395994    -40.395994     62.944650
     2   0 1 1      0.266337    -15.429139    -15.429139     31.124616

 Total times  cpu:      693.2s     wall:      713.0s
