============================== echo of input deck ==============================
echo
start methyloxirane_blyp-def2-tzvp_488.9_10.inp
title "methyloxirane roa calculations at 488.9 nm, input generated in va  with delta_type=2"
charge 0

geometry units angstrom nocenter noautoz noautosym nucleus point;symmetry c1
 O -0.877560 -0.180285  0.204454
 C  0.571929 -0.157485  0.124310
 C -0.188737  1.087244  0.341312
 C  1.185716 -0.519876 -1.212891
 H  1.058370 -0.595482  1.003069
 H -0.207450  1.542922  1.335210
 H -0.311025  1.778679 -0.496855
 H  2.242616 -0.218151 -1.247520
 H  1.142292 -1.606077 -1.373400
 H  0.653525 -0.029930 -2.037750
end

basis spherical
* library def2-TZVP
end

 set prop:newaoresp 1
 set aor:roadata T
 set cphf:maxsub 100
 set cphf:acc 1.0d-10
 set cphf:maxiter 100

property
    response 1   0.093196
    bdtensor
    convergence 1e-7
    damping 0.0037
    giao
end

dft
 direct
 mult 1
 xc becke88 lyp
 iterations 250
 tolerances tight
 grid xfine
 convergence nolevelshifting
 convergence energy 1e-8
 convergence gradient 1e-7

end

task dft gradient
task dft property
================================================================================

 Output coordinates in angstroms (scale by  1.889725989 to convert to a.u.)

  No.       Tag          Charge          X              Y              Z
 ---- ---------------- ---------- -------------- -------------- --------------
    1 O                    8.0000    -0.87756000    -0.18028500     0.20445400
    2 C                    6.0000     0.57192900    -0.15748500     0.12431000
    3 C                    6.0000    -0.18873700     1.08724400     0.34131200
    4 C                    6.0000     1.18571600    -0.51987600    -1.21289100
    5 H                    1.0000     1.05837000    -0.59548200     1.00306900
    6 H                    1.0000    -0.20745000     1.54292200     1.33521000
    7 H                    1.0000    -0.31102500     1.77867900    -0.49685500
    8 H                    1.0000     2.24261600    -0.21815100    -1.24752000
    9 H                    1.0000     1.14229200    -1.60607700    -1.37340000
   10 H                    1.0000     0.65352500    -0.02993000    -2.03775000

         Total DFT energy =     -193.109220149440
         Total DFT energy =     -193.109220149650

                       DFT Final Molecular Orbital Analysis
                       ------------------------------------

 Vector    1  Occ=2.000000D+00  E=-1.878083D+01

 Vector   81  Occ=0.000000D+00  E= 1.866185D+00

 Vector   82  Occ=0.000000D+00  E= 1.922813D+00

 Vector   83  Occ=0.000000D+00  E= 1.990282D+00

 Vector   84  Occ=0.000000D+00  E= 1.996050D+00

 Vector   85  Occ=0.000000D+00  E= 2.083858D+00

 Vector   86  Occ=0.000000D+00  E= 2.096084D+00

 Vector   87  Occ=0.000000D+00  E= 2.165291D+00

 Vector   88  Occ=0.000000D+00  E= 2.194665D+00

 Vector   89  Occ=0.000000D+00  E= 2.230164D+00

 Vector   90  Occ=0.000000D+00  E= 2.243310D+00

 Vector   91  Occ=0.000000D+00  E= 2.268265D+00

 Vector   92  Occ=0.000000D+00  E= 2.286804D+00

 Vector   93  Occ=0.000000D+00  E= 2.353179D+00

 Vector   94  Occ=0.000000D+00  E= 2.389760D+00

 Vector   95  Occ=0.000000D+00  E= 2.453141D+00

 Vector   96  Occ=0.000000D+00  E= 2.475589D+00

 Vector   97  Occ=0.000000D+00  E= 2.484041D+00

 Vector   98  Occ=0.000000D+00  E= 2.522863D+00

 Vector   99  Occ=0.000000D+00  E= 2.534812D+00

 Vector  100  Occ=0.000000D+00  E= 2.557301D+00

 Vector  101  Occ=0.000000D+00  E= 2.599563D+00

 Vector  102  Occ=0.000000D+00  E= 2.652068D+00

 Vector  103  Occ=0.000000D+00  E= 2.667185D+00

 Vector  104  Occ=0.000000D+00  E= 2.712540D+00

 Vector  105  Occ=0.000000D+00  E= 2.738642D+00

 Vector  106  Occ=0.000000D+00  E= 2.807080D+00

 Vector  107  Occ=0.000000D+00  E= 2.828614D+00

 Vector  108  Occ=0.000000D+00  E= 2.862455D+00

 Vector  109  Occ=0.000000D+00  E= 2.897126D+00

 Vector  110  Occ=0.000000D+00  E= 2.964107D+00

 Vector  111  Occ=0.000000D+00  E= 2.967050D+00

 Vector  112  Occ=0.000000D+00  E= 2.989976D+00

 Vector  113  Occ=0.000000D+00  E= 3.007478D+00

 Vector  114  Occ=0.000000D+00  E= 3.033113D+00

 Vector  115  Occ=0.000000D+00  E= 3.072032D+00

 Vector  116  Occ=0.000000D+00  E= 3.146639D+00

 Vector  117  Occ=0.000000D+00  E= 3.167935D+00

 Vector  118  Occ=0.000000D+00  E= 3.190234D+00

 Vector  119  Occ=0.000000D+00  E= 3.277361D+00

 Vector  120  Occ=0.000000D+00  E= 3.292961D+00

 Vector  121  Occ=0.000000D+00  E= 3.319677D+00

 Vector  122  Occ=0.000000D+00  E= 3.350483D+00

 Vector  123  Occ=0.000000D+00  E= 3.377100D+00

 Vector  124  Occ=0.000000D+00  E= 3.432894D+00

 Vector  125  Occ=0.000000D+00  E= 3.457398D+00

 Vector  126  Occ=0.000000D+00  E= 3.564078D+00

 Vector  127  Occ=0.000000D+00  E= 3.571235D+00

 Vector  128  Occ=0.000000D+00  E= 3.637615D+00

 Vector  129  Occ=0.000000D+00  E= 3.768947D+00

 Vector  130  Occ=0.000000D+00  E= 3.785947D+00

 Vector  131  Occ=0.000000D+00  E= 3.880041D+00

 Vector  132  Occ=0.000000D+00  E= 3.893704D+00

 Vector  133  Occ=0.000000D+00  E= 3.986173D+00

 Vector  134  Occ=0.000000D+00  E= 4.043749D+00

 Vector  135  Occ=0.000000D+00  E= 4.144079D+00

 Vector  136  Occ=0.000000D+00  E= 4.199029D+00

 Vector  137  Occ=0.000000D+00  E= 4.263049D+00

 Vector  138  Occ=0.000000D+00  E= 4.286809D+00

 Vector  139  Occ=0.000000D+00  E= 4.338491D+00

 Vector  140  Occ=0.000000D+00  E= 4.460232D+00

 Vector  141  Occ=0.000000D+00  E= 4.555223D+00

 Vector  142  Occ=0.000000D+00  E= 4.571043D+00

 Vector  143  Occ=0.000000D+00  E= 4.739306D+00

 Vector  144  Occ=0.000000D+00  E= 4.771136D+00

 Vector  145  Occ=0.000000D+00  E= 5.182032D+00

 Vector  146  Occ=0.000000D+00  E= 5.349348D+00

 Vector  147  Occ=0.000000D+00  E= 5.582325D+00

 Vector  148  Occ=0.000000D+00  E= 5.607022D+00

 Vector  149  Occ=0.000000D+00  E= 5.670912D+00

 Vector  150  Occ=0.000000D+00  E= 5.769495D+00

 Vector  151  Occ=0.000000D+00  E= 5.913303D+00

 Vector  152  Occ=0.000000D+00  E= 6.467229D+00

 Vector  153  Occ=0.000000D+00  E= 6.506768D+00

 Vector  154  Occ=0.000000D+00  E= 6.677779D+00

 Vector  155  Occ=0.000000D+00  E= 6.841767D+00

 Vector  156  Occ=0.000000D+00  E= 7.054896D+00

 Vector  157  Occ=0.000000D+00  E= 2.194214D+01

 Vector  158  Occ=0.000000D+00  E= 2.198206D+01

 Vector  159  Occ=0.000000D+00  E= 2.210199D+01

 Vector  160  Occ=0.000000D+00  E= 4.341736D+01

     Multipole analysis of the density
     ---------------------------------

     L   x y z        total         alpha         beta         nuclear
     -   - - -        -----         -----         ----         -------
     0   0 0 0     -0.000000    -16.000000    -16.000000     32.000000

     1   1 0 0      0.690300     -6.241769     -6.241769     13.173839
     1   0 1 0      0.324656     -1.622499     -1.622499      3.569653
     1   0 0 1     -0.054737      5.325496      5.325496    -10.705729

     2   2 0 0    -20.035521    -54.288147    -54.288147     88.540773
     2   1 1 0     -1.064755     13.843720     13.843720    -28.752195
     2   1 0 1      0.167090     26.479514     26.479514    -52.791939
     2   0 2 0    -17.862670    -40.445851    -40.445851     63.029032
     2   0 1 1      0.253714    -15.434959    -15.434959     31.123632

 Total times  cpu:      610.1s     wall:      625.2s
