============================== echo of input deck ==============================
echo
start methyloxirane_blyp-def2-tzvp_488.9_40.inp
title "methyloxirane roa calculations at 488.9 nm, input generated in va  with delta_type=2"
charge 0

geometry units angstrom nocenter noautoz noautosym nucleus point;symmetry c1
 O -0.879081 -0.180220  0.205264
 C  0.574065 -0.156450  0.122823
 C -0.185410  1.088459  0.340119
 C  1.185940 -0.518930 -1.211489
 H  1.058785 -0.605796  0.996542
 H -0.227942  1.534234  1.337139
 H -0.325480  1.779108 -0.495736
 H  2.246651 -0.229827 -1.232996
 H  1.146692 -1.603514 -1.387824
 H  0.636043 -0.041340 -2.032009
end

basis spherical
* library def2-TZVP
end

 set prop:newaoresp 1
 set aor:roadata T
 set cphf:maxsub 100
 set cphf:acc 1.0d-10
 set cphf:maxiter 100

property
    response 1   0.093196
    bdtensor
    convergence 1e-7
    damping 0.0037
    giao
end

dft
 direct
 mult 1
 xc becke88 lyp
 iterations 250
 tolerances tight
 grid xfine
 convergence nolevelshifting
 convergence energy 1e-8
 convergence gradient 1e-7

end

task dft gradient
task dft property
================================================================================

 Output coordinates in angstroms (scale by  1.889725989 to convert to a.u.)

  No.       Tag          Charge          X              Y              Z
 ---- ---------------- ---------- -------------- -------------- --------------
    1 O                    8.0000    -0.87908100    -0.18022000     0.20526400
    2 C                    6.0000     0.57406500    -0.15645000     0.12282300
    3 C                    6.0000    -0.18541000     1.08845900     0.34011900
    4 C                    6.0000     1.18594000    -0.51893000    -1.21148900
    5 H                    1.0000     1.05878500    -0.60579600     0.99654200
    6 H                    1.0000    -0.22794200     1.53423400     1.33713900
    7 H                    1.0000    -0.32548000     1.77910800    -0.49573600
    8 H                    1.0000     2.24665100    -0.22982700    -1.23299600
    9 H                    1.0000     1.14669200    -1.60351400    -1.38782400
   10 H                    1.0000     0.63604300    -0.04134000    -2.03200900

         Total DFT energy =     -193.109157538956
         Total DFT energy =     -193.109157538950

                       DFT Final Molecular Orbital Analysis
                       ------------------------------------

 Vector    1  Occ=2.000000D+00  E=-1.877958D+01

 Vector   81  Occ=0.000000D+00  E= 1.865599D+00

 Vector   82  Occ=0.000000D+00  E= 1.923589D+00

 Vector   83  Occ=0.000000D+00  E= 1.991359D+00

 Vector   84  Occ=0.000000D+00  E= 1.993499D+00

 Vector   85  Occ=0.000000D+00  E= 2.091183D+00

 Vector   86  Occ=0.000000D+00  E= 2.097972D+00

 Vector   87  Occ=0.000000D+00  E= 2.166548D+00

 Vector   88  Occ=0.000000D+00  E= 2.197740D+00

 Vector   89  Occ=0.000000D+00  E= 2.228602D+00

 Vector   90  Occ=0.000000D+00  E= 2.239771D+00

 Vector   91  Occ=0.000000D+00  E= 2.276636D+00

 Vector   92  Occ=0.000000D+00  E= 2.287290D+00

 Vector   93  Occ=0.000000D+00  E= 2.351214D+00

 Vector   94  Occ=0.000000D+00  E= 2.381328D+00

 Vector   95  Occ=0.000000D+00  E= 2.451196D+00

 Vector   96  Occ=0.000000D+00  E= 2.465188D+00

 Vector   97  Occ=0.000000D+00  E= 2.494402D+00

 Vector   98  Occ=0.000000D+00  E= 2.525504D+00

 Vector   99  Occ=0.000000D+00  E= 2.532833D+00

 Vector  100  Occ=0.000000D+00  E= 2.560996D+00

 Vector  101  Occ=0.000000D+00  E= 2.598030D+00

 Vector  102  Occ=0.000000D+00  E= 2.648615D+00

 Vector  103  Occ=0.000000D+00  E= 2.670103D+00

 Vector  104  Occ=0.000000D+00  E= 2.717451D+00

 Vector  105  Occ=0.000000D+00  E= 2.738209D+00

 Vector  106  Occ=0.000000D+00  E= 2.806276D+00

 Vector  107  Occ=0.000000D+00  E= 2.833289D+00

 Vector  108  Occ=0.000000D+00  E= 2.858222D+00

 Vector  109  Occ=0.000000D+00  E= 2.901559D+00

 Vector  110  Occ=0.000000D+00  E= 2.959858D+00

 Vector  111  Occ=0.000000D+00  E= 2.963751D+00

 Vector  112  Occ=0.000000D+00  E= 2.984531D+00

 Vector  113  Occ=0.000000D+00  E= 3.008308D+00

 Vector  114  Occ=0.000000D+00  E= 3.042055D+00

 Vector  115  Occ=0.000000D+00  E= 3.069682D+00

 Vector  116  Occ=0.000000D+00  E= 3.143034D+00

 Vector  117  Occ=0.000000D+00  E= 3.168139D+00

 Vector  118  Occ=0.000000D+00  E= 3.191265D+00

 Vector  119  Occ=0.000000D+00  E= 3.274844D+00

 Vector  120  Occ=0.000000D+00  E= 3.296298D+00

 Vector  121  Occ=0.000000D+00  E= 3.319392D+00

 Vector  122  Occ=0.000000D+00  E= 3.352839D+00

 Vector  123  Occ=0.000000D+00  E= 3.376257D+00

 Vector  124  Occ=0.000000D+00  E= 3.428984D+00

 Vector  125  Occ=0.000000D+00  E= 3.453515D+00

 Vector  126  Occ=0.000000D+00  E= 3.564542D+00

 Vector  127  Occ=0.000000D+00  E= 3.570029D+00

 Vector  128  Occ=0.000000D+00  E= 3.637307D+00

 Vector  129  Occ=0.000000D+00  E= 3.764144D+00

 Vector  130  Occ=0.000000D+00  E= 3.784911D+00

 Vector  131  Occ=0.000000D+00  E= 3.883333D+00

 Vector  132  Occ=0.000000D+00  E= 3.899022D+00

 Vector  133  Occ=0.000000D+00  E= 3.991441D+00

 Vector  134  Occ=0.000000D+00  E= 4.045325D+00

 Vector  135  Occ=0.000000D+00  E= 4.137852D+00

 Vector  136  Occ=0.000000D+00  E= 4.201471D+00

 Vector  137  Occ=0.000000D+00  E= 4.253437D+00

 Vector  138  Occ=0.000000D+00  E= 4.287039D+00

 Vector  139  Occ=0.000000D+00  E= 4.341397D+00

 Vector  140  Occ=0.000000D+00  E= 4.474789D+00

 Vector  141  Occ=0.000000D+00  E= 4.560432D+00

 Vector  142  Occ=0.000000D+00  E= 4.573062D+00

 Vector  143  Occ=0.000000D+00  E= 4.738606D+00

 Vector  144  Occ=0.000000D+00  E= 4.769792D+00

 Vector  145  Occ=0.000000D+00  E= 5.181782D+00

 Vector  146  Occ=0.000000D+00  E= 5.346802D+00

 Vector  147  Occ=0.000000D+00  E= 5.577598D+00

 Vector  148  Occ=0.000000D+00  E= 5.603618D+00

 Vector  149  Occ=0.000000D+00  E= 5.667205D+00

 Vector  150  Occ=0.000000D+00  E= 5.764229D+00

 Vector  151  Occ=0.000000D+00  E= 5.909453D+00

 Vector  152  Occ=0.000000D+00  E= 6.464196D+00

 Vector  153  Occ=0.000000D+00  E= 6.507668D+00

 Vector  154  Occ=0.000000D+00  E= 6.676739D+00

 Vector  155  Occ=0.000000D+00  E= 6.842249D+00

 Vector  156  Occ=0.000000D+00  E= 7.055590D+00

 Vector  157  Occ=0.000000D+00  E= 2.194068D+01

 Vector  158  Occ=0.000000D+00  E= 2.198239D+01

 Vector  159  Occ=0.000000D+00  E= 2.210210D+01

 Vector  160  Occ=0.000000D+00  E= 4.341518D+01

     Multipole analysis of the density
     ---------------------------------

     L   x y z        total         alpha         beta         nuclear
     -   - - -        -----         -----         ----         -------
     0   0 0 0     -0.000000    -16.000000    -16.000000     32.000000

     1   1 0 0      0.688358     -6.222308     -6.222308     13.132974
     1   0 1 0      0.321891     -1.605550     -1.605550      3.532992
     1   0 0 1     -0.055725      5.323893      5.323893    -10.703510

     2   2 0 0    -20.005975    -54.374120    -54.374120     88.742265
     2   1 1 0     -1.138525     13.940681     13.940681    -29.019887
     2   1 0 1      0.183073     26.448964     26.448964    -52.714856
     2   0 2 0    -17.865630    -40.434524    -40.434524     63.003417
     2   0 1 1      0.287709    -15.462867    -15.462867     31.213442

 Total times  cpu:      695.2s     wall:      716.7s
