============================== echo of input deck ==============================
echo
start methyloxirane_blyp-def2-tzvp_488.9_42.inp
title "methyloxirane roa calculations at 488.9 nm, input generated in va  with delta_type=2"
charge 0

geometry units angstrom nocenter noautoz noautosym nucleus point;symmetry c1
 O -0.879807 -0.180312  0.205344
 C  0.576122 -0.158965  0.121849
 C -0.186228  1.092077  0.340727
 C  1.185179 -0.520408 -1.211382
 H  1.056295 -0.602598  1.001002
 H -0.226095  1.519845  1.345417
 H -0.324260  1.767143 -0.507750
 H  2.240491 -0.212840 -1.245582
 H  1.140029 -1.606333 -1.371650
 H  0.654109 -0.026414 -2.034499
end

basis spherical
* library def2-TZVP
end

 set prop:newaoresp 1
 set aor:roadata T
 set cphf:maxsub 100
 set cphf:acc 1.0d-10
 set cphf:maxiter 100

property
    response 1   0.093196
    bdtensor
    convergence 1e-7
    damping 0.0037
    giao
end

dft
 direct
 mult 1
 xc becke88 lyp
 iterations 250
 tolerances tight
 grid xfine
 convergence nolevelshifting
 convergence energy 1e-8
 convergence gradient 1e-7

end

task dft gradient
task dft property
================================================================================

 Output coordinates in angstroms (scale by  1.889725989 to convert to a.u.)

  No.       Tag          Charge          X              Y              Z
 ---- ---------------- ---------- -------------- -------------- --------------
    1 O                    8.0000    -0.87980700    -0.18031200     0.20534400
    2 C                    6.0000     0.57612200    -0.15896500     0.12184900
    3 C                    6.0000    -0.18622800     1.09207700     0.34072700
    4 C                    6.0000     1.18517900    -0.52040800    -1.21138200
    5 H                    1.0000     1.05629500    -0.60259800     1.00100200
    6 H                    1.0000    -0.22609500     1.51984500     1.34541700
    7 H                    1.0000    -0.32426000     1.76714300    -0.50775000
    8 H                    1.0000     2.24049100    -0.21284000    -1.24558200
    9 H                    1.0000     1.14002900    -1.60633300    -1.37165000
   10 H                    1.0000     0.65410900    -0.02641400    -2.03449900

         Total DFT energy =     -193.109140016359
         Total DFT energy =     -193.109140016299

                       DFT Final Molecular Orbital Analysis
                       ------------------------------------

 Vector    1  Occ=2.000000D+00  E=-1.877884D+01

 Vector   81  Occ=0.000000D+00  E= 1.867764D+00

 Vector   82  Occ=0.000000D+00  E= 1.920262D+00

 Vector   83  Occ=0.000000D+00  E= 1.989865D+00

 Vector   84  Occ=0.000000D+00  E= 1.995289D+00

 Vector   85  Occ=0.000000D+00  E= 2.093160D+00

 Vector   86  Occ=0.000000D+00  E= 2.098684D+00

 Vector   87  Occ=0.000000D+00  E= 2.163730D+00

 Vector   88  Occ=0.000000D+00  E= 2.201634D+00

 Vector   89  Occ=0.000000D+00  E= 2.227920D+00

 Vector   90  Occ=0.000000D+00  E= 2.245280D+00

 Vector   91  Occ=0.000000D+00  E= 2.266200D+00

 Vector   92  Occ=0.000000D+00  E= 2.281309D+00

 Vector   93  Occ=0.000000D+00  E= 2.359582D+00

 Vector   94  Occ=0.000000D+00  E= 2.393418D+00

 Vector   95  Occ=0.000000D+00  E= 2.444116D+00

 Vector   96  Occ=0.000000D+00  E= 2.471945D+00

 Vector   97  Occ=0.000000D+00  E= 2.480690D+00

 Vector   98  Occ=0.000000D+00  E= 2.526914D+00

 Vector   99  Occ=0.000000D+00  E= 2.534416D+00

 Vector  100  Occ=0.000000D+00  E= 2.561929D+00

 Vector  101  Occ=0.000000D+00  E= 2.596672D+00

 Vector  102  Occ=0.000000D+00  E= 2.650734D+00

 Vector  103  Occ=0.000000D+00  E= 2.667524D+00

 Vector  104  Occ=0.000000D+00  E= 2.716709D+00

 Vector  105  Occ=0.000000D+00  E= 2.742181D+00

 Vector  106  Occ=0.000000D+00  E= 2.806266D+00

 Vector  107  Occ=0.000000D+00  E= 2.836251D+00

 Vector  108  Occ=0.000000D+00  E= 2.863739D+00

 Vector  109  Occ=0.000000D+00  E= 2.902528D+00

 Vector  110  Occ=0.000000D+00  E= 2.960716D+00

 Vector  111  Occ=0.000000D+00  E= 2.965722D+00

 Vector  112  Occ=0.000000D+00  E= 2.989640D+00

 Vector  113  Occ=0.000000D+00  E= 3.005660D+00

 Vector  114  Occ=0.000000D+00  E= 3.036802D+00

 Vector  115  Occ=0.000000D+00  E= 3.068009D+00

 Vector  116  Occ=0.000000D+00  E= 3.146182D+00

 Vector  117  Occ=0.000000D+00  E= 3.166927D+00

 Vector  118  Occ=0.000000D+00  E= 3.190589D+00

 Vector  119  Occ=0.000000D+00  E= 3.277401D+00

 Vector  120  Occ=0.000000D+00  E= 3.291240D+00

 Vector  121  Occ=0.000000D+00  E= 3.311401D+00

 Vector  122  Occ=0.000000D+00  E= 3.350767D+00

 Vector  123  Occ=0.000000D+00  E= 3.375274D+00

 Vector  124  Occ=0.000000D+00  E= 3.433751D+00

 Vector  125  Occ=0.000000D+00  E= 3.456401D+00

 Vector  126  Occ=0.000000D+00  E= 3.563541D+00

 Vector  127  Occ=0.000000D+00  E= 3.570250D+00

 Vector  128  Occ=0.000000D+00  E= 3.635035D+00

 Vector  129  Occ=0.000000D+00  E= 3.765872D+00

 Vector  130  Occ=0.000000D+00  E= 3.785094D+00

 Vector  131  Occ=0.000000D+00  E= 3.879926D+00

 Vector  132  Occ=0.000000D+00  E= 3.891798D+00

 Vector  133  Occ=0.000000D+00  E= 3.979008D+00

 Vector  134  Occ=0.000000D+00  E= 4.019049D+00

 Vector  135  Occ=0.000000D+00  E= 4.146647D+00

 Vector  136  Occ=0.000000D+00  E= 4.193863D+00

 Vector  137  Occ=0.000000D+00  E= 4.262894D+00

 Vector  138  Occ=0.000000D+00  E= 4.288918D+00

 Vector  139  Occ=0.000000D+00  E= 4.341881D+00

 Vector  140  Occ=0.000000D+00  E= 4.464848D+00

 Vector  141  Occ=0.000000D+00  E= 4.561647D+00

 Vector  142  Occ=0.000000D+00  E= 4.575379D+00

 Vector  143  Occ=0.000000D+00  E= 4.734974D+00

 Vector  144  Occ=0.000000D+00  E= 4.768498D+00

 Vector  145  Occ=0.000000D+00  E= 5.180902D+00

 Vector  146  Occ=0.000000D+00  E= 5.347069D+00

 Vector  147  Occ=0.000000D+00  E= 5.572777D+00

 Vector  148  Occ=0.000000D+00  E= 5.600588D+00

 Vector  149  Occ=0.000000D+00  E= 5.664375D+00

 Vector  150  Occ=0.000000D+00  E= 5.758750D+00

 Vector  151  Occ=0.000000D+00  E= 5.905261D+00

 Vector  152  Occ=0.000000D+00  E= 6.465127D+00

 Vector  153  Occ=0.000000D+00  E= 6.509869D+00

 Vector  154  Occ=0.000000D+00  E= 6.675721D+00

 Vector  155  Occ=0.000000D+00  E= 6.841837D+00

 Vector  156  Occ=0.000000D+00  E= 7.057529D+00

 Vector  157  Occ=0.000000D+00  E= 2.193073D+01

 Vector  158  Occ=0.000000D+00  E= 2.197945D+01

 Vector  159  Occ=0.000000D+00  E= 2.209548D+01

 Vector  160  Occ=0.000000D+00  E= 4.341293D+01

     Multipole analysis of the density
     ---------------------------------

     L   x y z        total         alpha         beta         nuclear
     -   - - -        -----         -----         ----         -------
     0   0 0 0     -0.000000    -16.000000    -16.000000     32.000000

     1   1 0 0      0.694196     -6.222110     -6.222110     13.138416
     1   0 1 0      0.326221     -1.606175     -1.606175      3.538570
     1   0 0 1     -0.057837      5.321978      5.321978    -10.701794

     2   2 0 0    -20.053316    -54.378045    -54.378045     88.702774
     2   1 1 0     -1.101196     13.876265     13.876265    -28.853726
     2   1 0 1      0.154621     26.479020     26.479020    -52.803420
     2   0 2 0    -17.880798    -40.391852    -40.391852     62.902906
     2   0 1 1      0.234377    -15.361918    -15.361918     30.958214

 Total times  cpu:      699.8s     wall:      717.2s
