============================== echo of input deck ==============================
echo
start methyloxirane_blyp-def2-tzvp_488.9_32.inp
title "methyloxirane roa calculations at 488.9 nm, input generated in va  with delta_type=2"
charge 0

geometry units angstrom nocenter noautoz noautosym nucleus point;symmetry c1
 O -0.877852 -0.179872  0.205160
 C  0.573375 -0.158624  0.121180
 C -0.185956  1.088357  0.340376
 C  1.187515 -0.517975 -1.209621
 H  1.045377 -0.620194  0.995577
 H -0.216686  1.545369  1.333136
 H -0.341153  1.775289 -0.496092
 H  2.245272 -0.222045 -1.257816
 H  1.132966 -1.604720 -1.364224
 H  0.645430 -0.030618 -2.029559
end

basis spherical
* library def2-TZVP
end

 set prop:newaoresp 1
 set aor:roadata T
 set cphf:maxsub 100
 set cphf:acc 1.0d-10
 set cphf:maxiter 100

property
    response 1   0.093196
    bdtensor
    convergence 1e-7
    damping 0.0037
    giao
end

dft
 direct
 mult 1
 xc becke88 lyp
 iterations 250
 tolerances tight
 grid xfine
 convergence nolevelshifting
 convergence energy 1e-8
 convergence gradient 1e-7

end

task dft gradient
task dft property
================================================================================

 Output coordinates in angstroms (scale by  1.889725989 to convert to a.u.)

  No.       Tag          Charge          X              Y              Z
 ---- ---------------- ---------- -------------- -------------- --------------
    1 O                    8.0000    -0.87785200    -0.17987200     0.20516000
    2 C                    6.0000     0.57337500    -0.15862400     0.12118000
    3 C                    6.0000    -0.18595600     1.08835700     0.34037600
    4 C                    6.0000     1.18751500    -0.51797500    -1.20962100
    5 H                    1.0000     1.04537700    -0.62019400     0.99557700
    6 H                    1.0000    -0.21668600     1.54536900     1.33313600
    7 H                    1.0000    -0.34115300     1.77528900    -0.49609200
    8 H                    1.0000     2.24527200    -0.22204500    -1.25781600
    9 H                    1.0000     1.13296600    -1.60472000    -1.36422400
   10 H                    1.0000     0.64543000    -0.03061800    -2.02955900

         Total DFT energy =     -193.109203565106
         Total DFT energy =     -193.109203565088

                       DFT Final Molecular Orbital Analysis
                       ------------------------------------

 Vector    1  Occ=2.000000D+00  E=-1.877962D+01

 Vector   81  Occ=0.000000D+00  E= 1.866528D+00

 Vector   82  Occ=0.000000D+00  E= 1.920131D+00

 Vector   83  Occ=0.000000D+00  E= 1.991109D+00

 Vector   84  Occ=0.000000D+00  E= 1.994965D+00

 Vector   85  Occ=0.000000D+00  E= 2.090468D+00

 Vector   86  Occ=0.000000D+00  E= 2.097283D+00

 Vector   87  Occ=0.000000D+00  E= 2.167169D+00

 Vector   88  Occ=0.000000D+00  E= 2.204134D+00

 Vector   89  Occ=0.000000D+00  E= 2.229484D+00

 Vector   90  Occ=0.000000D+00  E= 2.245642D+00

 Vector   91  Occ=0.000000D+00  E= 2.268112D+00

 Vector   92  Occ=0.000000D+00  E= 2.283045D+00

 Vector   93  Occ=0.000000D+00  E= 2.350397D+00

 Vector   94  Occ=0.000000D+00  E= 2.385537D+00

 Vector   95  Occ=0.000000D+00  E= 2.450881D+00

 Vector   96  Occ=0.000000D+00  E= 2.472689D+00

 Vector   97  Occ=0.000000D+00  E= 2.484079D+00

 Vector   98  Occ=0.000000D+00  E= 2.526961D+00

 Vector   99  Occ=0.000000D+00  E= 2.531086D+00

 Vector  100  Occ=0.000000D+00  E= 2.558585D+00

 Vector  101  Occ=0.000000D+00  E= 2.601843D+00

 Vector  102  Occ=0.000000D+00  E= 2.649171D+00

 Vector  103  Occ=0.000000D+00  E= 2.668452D+00

 Vector  104  Occ=0.000000D+00  E= 2.716669D+00

 Vector  105  Occ=0.000000D+00  E= 2.739035D+00

 Vector  106  Occ=0.000000D+00  E= 2.808671D+00

 Vector  107  Occ=0.000000D+00  E= 2.833962D+00

 Vector  108  Occ=0.000000D+00  E= 2.865277D+00

 Vector  109  Occ=0.000000D+00  E= 2.897579D+00

 Vector  110  Occ=0.000000D+00  E= 2.959532D+00

 Vector  111  Occ=0.000000D+00  E= 2.967262D+00

 Vector  112  Occ=0.000000D+00  E= 2.990173D+00

 Vector  113  Occ=0.000000D+00  E= 3.008041D+00

 Vector  114  Occ=0.000000D+00  E= 3.032530D+00

 Vector  115  Occ=0.000000D+00  E= 3.072767D+00

 Vector  116  Occ=0.000000D+00  E= 3.148813D+00

 Vector  117  Occ=0.000000D+00  E= 3.167853D+00

 Vector  118  Occ=0.000000D+00  E= 3.190832D+00

 Vector  119  Occ=0.000000D+00  E= 3.273869D+00

 Vector  120  Occ=0.000000D+00  E= 3.292122D+00

 Vector  121  Occ=0.000000D+00  E= 3.320693D+00

 Vector  122  Occ=0.000000D+00  E= 3.351814D+00

 Vector  123  Occ=0.000000D+00  E= 3.372705D+00

 Vector  124  Occ=0.000000D+00  E= 3.425155D+00

 Vector  125  Occ=0.000000D+00  E= 3.456083D+00

 Vector  126  Occ=0.000000D+00  E= 3.563399D+00

 Vector  127  Occ=0.000000D+00  E= 3.572409D+00

 Vector  128  Occ=0.000000D+00  E= 3.642334D+00

 Vector  129  Occ=0.000000D+00  E= 3.766769D+00

 Vector  130  Occ=0.000000D+00  E= 3.786274D+00

 Vector  131  Occ=0.000000D+00  E= 3.886261D+00

 Vector  132  Occ=0.000000D+00  E= 3.897794D+00

 Vector  133  Occ=0.000000D+00  E= 3.986315D+00

 Vector  134  Occ=0.000000D+00  E= 4.047460D+00

 Vector  135  Occ=0.000000D+00  E= 4.149406D+00

 Vector  136  Occ=0.000000D+00  E= 4.195374D+00

 Vector  137  Occ=0.000000D+00  E= 4.260604D+00

 Vector  138  Occ=0.000000D+00  E= 4.284089D+00

 Vector  139  Occ=0.000000D+00  E= 4.339786D+00

 Vector  140  Occ=0.000000D+00  E= 4.476626D+00

 Vector  141  Occ=0.000000D+00  E= 4.561935D+00

 Vector  142  Occ=0.000000D+00  E= 4.575357D+00

 Vector  143  Occ=0.000000D+00  E= 4.738425D+00

 Vector  144  Occ=0.000000D+00  E= 4.769115D+00

 Vector  145  Occ=0.000000D+00  E= 5.183413D+00

 Vector  146  Occ=0.000000D+00  E= 5.348559D+00

 Vector  147  Occ=0.000000D+00  E= 5.580173D+00

 Vector  148  Occ=0.000000D+00  E= 5.606828D+00

 Vector  149  Occ=0.000000D+00  E= 5.671487D+00

 Vector  150  Occ=0.000000D+00  E= 5.765624D+00

 Vector  151  Occ=0.000000D+00  E= 5.911614D+00

 Vector  152  Occ=0.000000D+00  E= 6.466229D+00

 Vector  153  Occ=0.000000D+00  E= 6.510971D+00

 Vector  154  Occ=0.000000D+00  E= 6.678374D+00

 Vector  155  Occ=0.000000D+00  E= 6.842377D+00

 Vector  156  Occ=0.000000D+00  E= 7.055815D+00

 Vector  157  Occ=0.000000D+00  E= 2.194229D+01

 Vector  158  Occ=0.000000D+00  E= 2.198245D+01

 Vector  159  Occ=0.000000D+00  E= 2.210558D+01

 Vector  160  Occ=0.000000D+00  E= 4.341577D+01

     Multipole analysis of the density
     ---------------------------------

     L   x y z        total         alpha         beta         nuclear
     -   - - -        -----         -----         ----         -------
     0   0 0 0     -0.000000    -16.000000    -16.000000     32.000000

     1   1 0 0      0.685331     -6.212788     -6.212788     13.110908
     1   0 1 0      0.321927     -1.610327     -1.610327      3.542580
     1   0 0 1     -0.058323      5.324515      5.324515    -10.707354

     2   2 0 0    -20.018835    -54.297337    -54.297337     88.575840
     2   1 1 0     -1.116263     13.927326     13.927326    -28.970915
     2   1 0 1      0.152339     26.467963     26.467963    -52.783586
     2   0 2 0    -17.837328    -40.480694    -40.480694     63.124061
     2   0 1 1      0.236399    -15.351886    -15.351886     30.940170

 Total times  cpu:      694.2s     wall:      710.9s
