============================== echo of input deck ==============================
echo
start methyloxirane_blyp-def2-tzvp_488.9_37.inp
title "methyloxirane roa calculations at 488.9 nm, input generated in va  with delta_type=2"
charge 0

geometry units angstrom nocenter noautoz noautosym nucleus point;symmetry c1
 O -0.877455 -0.179527  0.205862
 C  0.572199 -0.154205  0.122646
 C -0.183381  1.084876  0.339878
 C  1.185157 -0.521023 -1.212483
 H  1.040097 -0.599321  1.007334
 H -0.234110  1.531997  1.335812
 H -0.327487  1.776536 -0.494292
 H  2.240600 -0.213859 -1.245419
 H  1.143242 -1.606469 -1.375881
 H  0.653989 -0.026154 -2.035120
end

basis spherical
* library def2-TZVP
end

 set prop:newaoresp 1
 set aor:roadata T
 set cphf:maxsub 100
 set cphf:acc 1.0d-10
 set cphf:maxiter 100

property
    response 1   0.093196
    bdtensor
    convergence 1e-7
    damping 0.0037
    giao
end

dft
 direct
 mult 1
 xc becke88 lyp
 iterations 250
 tolerances tight
 grid xfine
 convergence nolevelshifting
 convergence energy 1e-8
 convergence gradient 1e-7

end

task dft gradient
task dft property
================================================================================

 Output coordinates in angstroms (scale by  1.889725989 to convert to a.u.)

  No.       Tag          Charge          X              Y              Z
 ---- ---------------- ---------- -------------- -------------- --------------
    1 O                    8.0000    -0.87745500    -0.17952700     0.20586200
    2 C                    6.0000     0.57219900    -0.15420500     0.12264600
    3 C                    6.0000    -0.18338100     1.08487600     0.33987800
    4 C                    6.0000     1.18515700    -0.52102300    -1.21248300
    5 H                    1.0000     1.04009700    -0.59932100     1.00733400
    6 H                    1.0000    -0.23411000     1.53199700     1.33581200
    7 H                    1.0000    -0.32748700     1.77653600    -0.49429200
    8 H                    1.0000     2.24060000    -0.21385900    -1.24541900
    9 H                    1.0000     1.14324200    -1.60646900    -1.37588100
   10 H                    1.0000     0.65398900    -0.02615400    -2.03512000

         Total DFT energy =     -193.109204951070
         Total DFT energy =     -193.109204951376

                       DFT Final Molecular Orbital Analysis
                       ------------------------------------

 Vector    1  Occ=2.000000D+00  E=-1.877892D+01

 Vector   81  Occ=0.000000D+00  E= 1.867323D+00

 Vector   82  Occ=0.000000D+00  E= 1.922920D+00

 Vector   83  Occ=0.000000D+00  E= 1.991642D+00

 Vector   84  Occ=0.000000D+00  E= 1.995565D+00

 Vector   85  Occ=0.000000D+00  E= 2.091622D+00

 Vector   86  Occ=0.000000D+00  E= 2.098126D+00

 Vector   87  Occ=0.000000D+00  E= 2.166592D+00

 Vector   88  Occ=0.000000D+00  E= 2.201697D+00

 Vector   89  Occ=0.000000D+00  E= 2.228637D+00

 Vector   90  Occ=0.000000D+00  E= 2.246166D+00

 Vector   91  Occ=0.000000D+00  E= 2.265354D+00

 Vector   92  Occ=0.000000D+00  E= 2.282324D+00

 Vector   93  Occ=0.000000D+00  E= 2.350479D+00

 Vector   94  Occ=0.000000D+00  E= 2.392470D+00

 Vector   95  Occ=0.000000D+00  E= 2.456193D+00

 Vector   96  Occ=0.000000D+00  E= 2.475192D+00

 Vector   97  Occ=0.000000D+00  E= 2.483046D+00

 Vector   98  Occ=0.000000D+00  E= 2.531246D+00

 Vector   99  Occ=0.000000D+00  E= 2.533115D+00

 Vector  100  Occ=0.000000D+00  E= 2.556684D+00

 Vector  101  Occ=0.000000D+00  E= 2.600165D+00

 Vector  102  Occ=0.000000D+00  E= 2.651882D+00

 Vector  103  Occ=0.000000D+00  E= 2.668770D+00

 Vector  104  Occ=0.000000D+00  E= 2.721303D+00

 Vector  105  Occ=0.000000D+00  E= 2.743545D+00

 Vector  106  Occ=0.000000D+00  E= 2.806486D+00

 Vector  107  Occ=0.000000D+00  E= 2.837560D+00

 Vector  108  Occ=0.000000D+00  E= 2.862953D+00

 Vector  109  Occ=0.000000D+00  E= 2.902820D+00

 Vector  110  Occ=0.000000D+00  E= 2.959857D+00

 Vector  111  Occ=0.000000D+00  E= 2.965396D+00

 Vector  112  Occ=0.000000D+00  E= 2.991898D+00

 Vector  113  Occ=0.000000D+00  E= 3.007521D+00

 Vector  114  Occ=0.000000D+00  E= 3.032575D+00

 Vector  115  Occ=0.000000D+00  E= 3.069994D+00

 Vector  116  Occ=0.000000D+00  E= 3.146632D+00

 Vector  117  Occ=0.000000D+00  E= 3.166666D+00

 Vector  118  Occ=0.000000D+00  E= 3.194142D+00

 Vector  119  Occ=0.000000D+00  E= 3.277072D+00

 Vector  120  Occ=0.000000D+00  E= 3.294903D+00

 Vector  121  Occ=0.000000D+00  E= 3.316990D+00

 Vector  122  Occ=0.000000D+00  E= 3.357293D+00

 Vector  123  Occ=0.000000D+00  E= 3.375725D+00

 Vector  124  Occ=0.000000D+00  E= 3.435630D+00

 Vector  125  Occ=0.000000D+00  E= 3.455186D+00

 Vector  126  Occ=0.000000D+00  E= 3.567364D+00

 Vector  127  Occ=0.000000D+00  E= 3.573045D+00

 Vector  128  Occ=0.000000D+00  E= 3.637740D+00

 Vector  129  Occ=0.000000D+00  E= 3.767295D+00

 Vector  130  Occ=0.000000D+00  E= 3.784969D+00

 Vector  131  Occ=0.000000D+00  E= 3.881882D+00

 Vector  132  Occ=0.000000D+00  E= 3.899566D+00

 Vector  133  Occ=0.000000D+00  E= 3.993123D+00

 Vector  134  Occ=0.000000D+00  E= 4.049263D+00

 Vector  135  Occ=0.000000D+00  E= 4.145945D+00

 Vector  136  Occ=0.000000D+00  E= 4.195238D+00

 Vector  137  Occ=0.000000D+00  E= 4.267422D+00

 Vector  138  Occ=0.000000D+00  E= 4.287536D+00

 Vector  139  Occ=0.000000D+00  E= 4.347399D+00

 Vector  140  Occ=0.000000D+00  E= 4.469103D+00

 Vector  141  Occ=0.000000D+00  E= 4.563745D+00

 Vector  142  Occ=0.000000D+00  E= 4.573017D+00

 Vector  143  Occ=0.000000D+00  E= 4.738193D+00

 Vector  144  Occ=0.000000D+00  E= 4.775116D+00

 Vector  145  Occ=0.000000D+00  E= 5.184167D+00

 Vector  146  Occ=0.000000D+00  E= 5.350891D+00

 Vector  147  Occ=0.000000D+00  E= 5.583691D+00

 Vector  148  Occ=0.000000D+00  E= 5.606977D+00

 Vector  149  Occ=0.000000D+00  E= 5.673203D+00

 Vector  150  Occ=0.000000D+00  E= 5.770718D+00

 Vector  151  Occ=0.000000D+00  E= 5.913877D+00

 Vector  152  Occ=0.000000D+00  E= 6.464806D+00

 Vector  153  Occ=0.000000D+00  E= 6.512382D+00

 Vector  154  Occ=0.000000D+00  E= 6.680931D+00

 Vector  155  Occ=0.000000D+00  E= 6.843875D+00

 Vector  156  Occ=0.000000D+00  E= 7.055088D+00

 Vector  157  Occ=0.000000D+00  E= 2.194912D+01

 Vector  158  Occ=0.000000D+00  E= 2.198496D+01

 Vector  159  Occ=0.000000D+00  E= 2.211250D+01

 Vector  160  Occ=0.000000D+00  E= 4.341762D+01

     Multipole analysis of the density
     ---------------------------------

     L   x y z        total         alpha         beta         nuclear
     -   - - -        -----         -----         ----         -------
     0   0 0 0     -0.000000    -16.000000    -16.000000     32.000000

     1   1 0 0      0.686096     -6.214813     -6.214813     13.115721
     1   0 1 0      0.324736     -1.618134     -1.618134      3.561003
     1   0 0 1     -0.057568      5.319541      5.319541    -10.696650

     2   2 0 0    -20.038582    -54.214947    -54.214947     88.391312
     2   1 1 0     -1.103123     13.847861     13.847861    -28.798844
     2   1 0 1      0.133917     26.523891     26.523891    -52.913865
     2   0 2 0    -17.849618    -40.315327    -40.315327     62.781036
     2   0 1 1      0.250471    -15.387648    -15.387648     31.025767

 Total times  cpu:      691.0s     wall:      713.6s
