============================== echo of input deck ==============================
echo
start methyloxirane_blyp-def2-tzvp_488.9_45.inp
title "methyloxirane roa calculations at 488.9 nm, input generated in va  with delta_type=2"
charge 0

geometry units angstrom nocenter noautoz noautosym nucleus point;symmetry c1
 O -0.879089 -0.180304  0.205236
 C  0.574927 -0.158402  0.124049
 C -0.185575  1.088654  0.339971
 C  1.184873 -0.520135 -1.211906
 H  1.049559 -0.595200  0.981057
 H -0.227908  1.537580  1.334309
 H -0.324933  1.780017 -0.490018
 H  2.244612 -0.215079 -1.245811
 H  1.142249 -1.606910 -1.374451
 H  0.655706 -0.030937 -2.027383
end

basis spherical
* library def2-TZVP
end

 set prop:newaoresp 1
 set aor:roadata T
 set cphf:maxsub 100
 set cphf:acc 1.0d-10
 set cphf:maxiter 100

property
    response 1   0.093196
    bdtensor
    convergence 1e-7
    damping 0.0037
    giao
end

dft
 direct
 mult 1
 xc becke88 lyp
 iterations 250
 tolerances tight
 grid xfine
 convergence nolevelshifting
 convergence energy 1e-8
 convergence gradient 1e-7

end

task dft gradient
task dft property
================================================================================

 Output coordinates in angstroms (scale by  1.889725989 to convert to a.u.)

  No.       Tag          Charge          X              Y              Z
 ---- ---------------- ---------- -------------- -------------- --------------
    1 O                    8.0000    -0.87908900    -0.18030400     0.20523600
    2 C                    6.0000     0.57492700    -0.15840200     0.12404900
    3 C                    6.0000    -0.18557500     1.08865400     0.33997100
    4 C                    6.0000     1.18487300    -0.52013500    -1.21190600
    5 H                    1.0000     1.04955900    -0.59520000     0.98105700
    6 H                    1.0000    -0.22790800     1.53758000     1.33430900
    7 H                    1.0000    -0.32493300     1.78001700    -0.49001800
    8 H                    1.0000     2.24461200    -0.21507900    -1.24581100
    9 H                    1.0000     1.14224900    -1.60691000    -1.37445100
   10 H                    1.0000     0.65570600    -0.03093700    -2.02738300

         Total DFT energy =     -193.108940206942
         Total DFT energy =     -193.108940207219

                       DFT Final Molecular Orbital Analysis
                       ------------------------------------

 Vector    1  Occ=2.000000D+00  E=-1.877931D+01

 Vector   81  Occ=0.000000D+00  E= 1.871039D+00

 Vector   82  Occ=0.000000D+00  E= 1.921469D+00

 Vector   83  Occ=0.000000D+00  E= 1.990522D+00

 Vector   84  Occ=0.000000D+00  E= 1.995850D+00

 Vector   85  Occ=0.000000D+00  E= 2.093265D+00

 Vector   86  Occ=0.000000D+00  E= 2.097743D+00

 Vector   87  Occ=0.000000D+00  E= 2.168325D+00

 Vector   88  Occ=0.000000D+00  E= 2.202599D+00

 Vector   89  Occ=0.000000D+00  E= 2.231937D+00

 Vector   90  Occ=0.000000D+00  E= 2.247696D+00

 Vector   91  Occ=0.000000D+00  E= 2.268370D+00

 Vector   92  Occ=0.000000D+00  E= 2.289037D+00

 Vector   93  Occ=0.000000D+00  E= 2.353692D+00

 Vector   94  Occ=0.000000D+00  E= 2.390496D+00

 Vector   95  Occ=0.000000D+00  E= 2.454862D+00

 Vector   96  Occ=0.000000D+00  E= 2.476937D+00

 Vector   97  Occ=0.000000D+00  E= 2.486813D+00

 Vector   98  Occ=0.000000D+00  E= 2.531823D+00

 Vector   99  Occ=0.000000D+00  E= 2.538018D+00

 Vector  100  Occ=0.000000D+00  E= 2.568412D+00

 Vector  101  Occ=0.000000D+00  E= 2.600715D+00

 Vector  102  Occ=0.000000D+00  E= 2.652649D+00

 Vector  103  Occ=0.000000D+00  E= 2.667888D+00

 Vector  104  Occ=0.000000D+00  E= 2.720868D+00

 Vector  105  Occ=0.000000D+00  E= 2.740645D+00

 Vector  106  Occ=0.000000D+00  E= 2.806737D+00

 Vector  107  Occ=0.000000D+00  E= 2.839873D+00

 Vector  108  Occ=0.000000D+00  E= 2.861819D+00

 Vector  109  Occ=0.000000D+00  E= 2.899421D+00

 Vector  110  Occ=0.000000D+00  E= 2.959142D+00

 Vector  111  Occ=0.000000D+00  E= 2.964534D+00

 Vector  112  Occ=0.000000D+00  E= 2.989254D+00

 Vector  113  Occ=0.000000D+00  E= 3.008677D+00

 Vector  114  Occ=0.000000D+00  E= 3.035995D+00

 Vector  115  Occ=0.000000D+00  E= 3.066069D+00

 Vector  116  Occ=0.000000D+00  E= 3.147019D+00

 Vector  117  Occ=0.000000D+00  E= 3.167494D+00

 Vector  118  Occ=0.000000D+00  E= 3.191684D+00

 Vector  119  Occ=0.000000D+00  E= 3.279899D+00

 Vector  120  Occ=0.000000D+00  E= 3.294707D+00

 Vector  121  Occ=0.000000D+00  E= 3.322925D+00

 Vector  122  Occ=0.000000D+00  E= 3.354650D+00

 Vector  123  Occ=0.000000D+00  E= 3.374091D+00

 Vector  124  Occ=0.000000D+00  E= 3.436759D+00

 Vector  125  Occ=0.000000D+00  E= 3.461603D+00

 Vector  126  Occ=0.000000D+00  E= 3.565976D+00

 Vector  127  Occ=0.000000D+00  E= 3.573889D+00

 Vector  128  Occ=0.000000D+00  E= 3.643400D+00

 Vector  129  Occ=0.000000D+00  E= 3.766252D+00

 Vector  130  Occ=0.000000D+00  E= 3.784868D+00

 Vector  131  Occ=0.000000D+00  E= 3.880793D+00

 Vector  132  Occ=0.000000D+00  E= 3.905094D+00

 Vector  133  Occ=0.000000D+00  E= 3.991846D+00

 Vector  134  Occ=0.000000D+00  E= 4.051091D+00

 Vector  135  Occ=0.000000D+00  E= 4.145807D+00

 Vector  136  Occ=0.000000D+00  E= 4.199548D+00

 Vector  137  Occ=0.000000D+00  E= 4.276642D+00

 Vector  138  Occ=0.000000D+00  E= 4.289256D+00

 Vector  139  Occ=0.000000D+00  E= 4.340074D+00

 Vector  140  Occ=0.000000D+00  E= 4.484927D+00

 Vector  141  Occ=0.000000D+00  E= 4.567902D+00

 Vector  142  Occ=0.000000D+00  E= 4.573611D+00

 Vector  143  Occ=0.000000D+00  E= 4.738437D+00

 Vector  144  Occ=0.000000D+00  E= 4.770967D+00

 Vector  145  Occ=0.000000D+00  E= 5.182851D+00

 Vector  146  Occ=0.000000D+00  E= 5.347014D+00

 Vector  147  Occ=0.000000D+00  E= 5.578884D+00

 Vector  148  Occ=0.000000D+00  E= 5.604984D+00

 Vector  149  Occ=0.000000D+00  E= 5.667447D+00

 Vector  150  Occ=0.000000D+00  E= 5.764534D+00

 Vector  151  Occ=0.000000D+00  E= 5.909435D+00

 Vector  152  Occ=0.000000D+00  E= 6.465103D+00

 Vector  153  Occ=0.000000D+00  E= 6.508010D+00

 Vector  154  Occ=0.000000D+00  E= 6.676989D+00

 Vector  155  Occ=0.000000D+00  E= 6.842295D+00

 Vector  156  Occ=0.000000D+00  E= 7.056534D+00

 Vector  157  Occ=0.000000D+00  E= 2.194789D+01

 Vector  158  Occ=0.000000D+00  E= 2.199136D+01

 Vector  159  Occ=0.000000D+00  E= 2.212684D+01

 Vector  160  Occ=0.000000D+00  E= 4.341396D+01

     Multipole analysis of the density
     ---------------------------------

     L   x y z        total         alpha         beta         nuclear
     -   - - -        -----         -----         ----         -------
     0   0 0 0     -0.000000    -16.000000    -16.000000     32.000000

     1   1 0 0      0.693044     -6.222093     -6.222093     13.137230
     1   0 1 0      0.325480     -1.620917     -1.620917      3.567313
     1   0 0 1     -0.052901      5.328773      5.328773    -10.710447

     2   2 0 0    -20.017960    -54.339927    -54.339927     88.661894
     2   1 1 0     -1.110579     13.872477     13.872477    -28.855532
     2   1 0 1      0.172198     26.548782     26.548782    -52.925366
     2   0 2 0    -17.818931    -40.443968    -40.443968     63.069005
     2   0 1 1      0.240105    -15.456190    -15.456190     31.152486

 Total times  cpu:      690.5s     wall:      707.2s
