============================== echo of input deck ==============================
echo
start methyloxirane_blyp-def2-tzvp_488.9_35.inp
title "methyloxirane roa calculations at 488.9 nm, input generated in va  with delta_type=2"
charge 0

geometry units angstrom nocenter noautoz noautosym nucleus point;symmetry c1
 O -0.879666 -0.178535  0.203797
 C  0.573350 -0.160710  0.126490
 C -0.183055  1.087081  0.340569
 C  1.184984 -0.517998 -1.214072
 H  1.070638 -0.590742  1.003708
 H -0.231505  1.539490  1.334761
 H -0.345255  1.775249 -0.493419
 H  2.243754 -0.222074 -1.244821
 H  1.141983 -1.605705 -1.365740
 H  0.656276 -0.034045 -2.044361
end

basis spherical
* library def2-TZVP
end

 set prop:newaoresp 1
 set aor:roadata T
 set cphf:maxsub 100
 set cphf:acc 1.0d-10
 set cphf:maxiter 100

property
    response 1   0.093196
    bdtensor
    convergence 1e-7
    damping 0.0037
    giao
end

dft
 direct
 mult 1
 xc becke88 lyp
 iterations 250
 tolerances tight
 grid xfine
 convergence nolevelshifting
 convergence energy 1e-8
 convergence gradient 1e-7

end

task dft gradient
task dft property
================================================================================

 Output coordinates in angstroms (scale by  1.889725989 to convert to a.u.)

  No.       Tag          Charge          X              Y              Z
 ---- ---------------- ---------- -------------- -------------- --------------
    1 O                    8.0000    -0.87966600    -0.17853500     0.20379700
    2 C                    6.0000     0.57335000    -0.16071000     0.12649000
    3 C                    6.0000    -0.18305500     1.08708100     0.34056900
    4 C                    6.0000     1.18498400    -0.51799800    -1.21407200
    5 H                    1.0000     1.07063800    -0.59074200     1.00370800
    6 H                    1.0000    -0.23150500     1.53949000     1.33476100
    7 H                    1.0000    -0.34525500     1.77524900    -0.49341900
    8 H                    1.0000     2.24375400    -0.22207400    -1.24482100
    9 H                    1.0000     1.14198300    -1.60570500    -1.36574000
   10 H                    1.0000     0.65627600    -0.03404500    -2.04436100

         Total DFT energy =     -193.109165935309
         Total DFT energy =     -193.109165935763

                       DFT Final Molecular Orbital Analysis
                       ------------------------------------

 Vector    1  Occ=2.000000D+00  E=-1.877968D+01

 Vector   81  Occ=0.000000D+00  E= 1.866165D+00

 Vector   82  Occ=0.000000D+00  E= 1.919999D+00

 Vector   83  Occ=0.000000D+00  E= 1.988910D+00

 Vector   84  Occ=0.000000D+00  E= 1.995901D+00

 Vector   85  Occ=0.000000D+00  E= 2.089921D+00

 Vector   86  Occ=0.000000D+00  E= 2.095752D+00

 Vector   87  Occ=0.000000D+00  E= 2.165267D+00

 Vector   88  Occ=0.000000D+00  E= 2.197873D+00

 Vector   89  Occ=0.000000D+00  E= 2.233760D+00

 Vector   90  Occ=0.000000D+00  E= 2.241954D+00

 Vector   91  Occ=0.000000D+00  E= 2.265206D+00

 Vector   92  Occ=0.000000D+00  E= 2.283768D+00

 Vector   93  Occ=0.000000D+00  E= 2.349530D+00

 Vector   94  Occ=0.000000D+00  E= 2.381405D+00

 Vector   95  Occ=0.000000D+00  E= 2.450172D+00

 Vector   96  Occ=0.000000D+00  E= 2.472929D+00

 Vector   97  Occ=0.000000D+00  E= 2.485243D+00

 Vector   98  Occ=0.000000D+00  E= 2.527078D+00

 Vector   99  Occ=0.000000D+00  E= 2.534214D+00

 Vector  100  Occ=0.000000D+00  E= 2.558041D+00

 Vector  101  Occ=0.000000D+00  E= 2.600421D+00

 Vector  102  Occ=0.000000D+00  E= 2.648467D+00

 Vector  103  Occ=0.000000D+00  E= 2.669518D+00

 Vector  104  Occ=0.000000D+00  E= 2.714110D+00

 Vector  105  Occ=0.000000D+00  E= 2.737955D+00

 Vector  106  Occ=0.000000D+00  E= 2.800639D+00

 Vector  107  Occ=0.000000D+00  E= 2.835517D+00

 Vector  108  Occ=0.000000D+00  E= 2.863119D+00

 Vector  109  Occ=0.000000D+00  E= 2.896648D+00

 Vector  110  Occ=0.000000D+00  E= 2.957788D+00

 Vector  111  Occ=0.000000D+00  E= 2.965481D+00

 Vector  112  Occ=0.000000D+00  E= 2.990648D+00

 Vector  113  Occ=0.000000D+00  E= 3.008513D+00

 Vector  114  Occ=0.000000D+00  E= 3.035651D+00

 Vector  115  Occ=0.000000D+00  E= 3.066189D+00

 Vector  116  Occ=0.000000D+00  E= 3.148758D+00

 Vector  117  Occ=0.000000D+00  E= 3.163572D+00

 Vector  118  Occ=0.000000D+00  E= 3.191943D+00

 Vector  119  Occ=0.000000D+00  E= 3.275435D+00

 Vector  120  Occ=0.000000D+00  E= 3.295837D+00

 Vector  121  Occ=0.000000D+00  E= 3.313515D+00

 Vector  122  Occ=0.000000D+00  E= 3.355587D+00

 Vector  123  Occ=0.000000D+00  E= 3.372451D+00

 Vector  124  Occ=0.000000D+00  E= 3.429538D+00

 Vector  125  Occ=0.000000D+00  E= 3.451716D+00

 Vector  126  Occ=0.000000D+00  E= 3.561003D+00

 Vector  127  Occ=0.000000D+00  E= 3.573227D+00

 Vector  128  Occ=0.000000D+00  E= 3.636452D+00

 Vector  129  Occ=0.000000D+00  E= 3.763816D+00

 Vector  130  Occ=0.000000D+00  E= 3.782913D+00

 Vector  131  Occ=0.000000D+00  E= 3.877458D+00

 Vector  132  Occ=0.000000D+00  E= 3.900281D+00

 Vector  133  Occ=0.000000D+00  E= 3.987572D+00

 Vector  134  Occ=0.000000D+00  E= 4.047686D+00

 Vector  135  Occ=0.000000D+00  E= 4.141609D+00

 Vector  136  Occ=0.000000D+00  E= 4.200494D+00

 Vector  137  Occ=0.000000D+00  E= 4.263333D+00

 Vector  138  Occ=0.000000D+00  E= 4.286313D+00

 Vector  139  Occ=0.000000D+00  E= 4.337869D+00

 Vector  140  Occ=0.000000D+00  E= 4.457871D+00

 Vector  141  Occ=0.000000D+00  E= 4.562962D+00

 Vector  142  Occ=0.000000D+00  E= 4.571237D+00

 Vector  143  Occ=0.000000D+00  E= 4.738493D+00

 Vector  144  Occ=0.000000D+00  E= 4.768749D+00

 Vector  145  Occ=0.000000D+00  E= 5.181991D+00

 Vector  146  Occ=0.000000D+00  E= 5.346632D+00

 Vector  147  Occ=0.000000D+00  E= 5.578779D+00

 Vector  148  Occ=0.000000D+00  E= 5.604218D+00

 Vector  149  Occ=0.000000D+00  E= 5.666435D+00

 Vector  150  Occ=0.000000D+00  E= 5.764064D+00

 Vector  151  Occ=0.000000D+00  E= 5.909729D+00

 Vector  152  Occ=0.000000D+00  E= 6.464998D+00

 Vector  153  Occ=0.000000D+00  E= 6.509674D+00

 Vector  154  Occ=0.000000D+00  E= 6.677199D+00

 Vector  155  Occ=0.000000D+00  E= 6.842284D+00

 Vector  156  Occ=0.000000D+00  E= 7.055827D+00

 Vector  157  Occ=0.000000D+00  E= 2.194231D+01

 Vector  158  Occ=0.000000D+00  E= 2.197905D+01

 Vector  159  Occ=0.000000D+00  E= 2.209425D+01

 Vector  160  Occ=0.000000D+00  E= 4.341532D+01

     Multipole analysis of the density
     ---------------------------------

     L   x y z        total         alpha         beta         nuclear
     -   - - -        -----         -----         ----         -------
     0   0 0 0     -0.000000    -16.000000    -16.000000     32.000000

     1   1 0 0      0.687530     -6.223257     -6.223257     13.134043
     1   0 1 0      0.324699     -1.617896     -1.617896      3.560491
     1   0 0 1     -0.053564      5.322630      5.322630    -10.698824

     2   2 0 0    -20.005449    -54.422075    -54.422075     88.838701
     2   1 1 0     -1.131088     13.949820     13.949820    -29.030728
     2   1 0 1      0.183471     26.452386     26.452386    -52.721301
     2   0 2 0    -17.882005    -40.383590    -40.383590     62.885176
     2   0 1 1      0.244678    -15.423619    -15.423619     31.091917

 Total times  cpu:      685.4s     wall:      712.7s
