============================== echo of input deck ==============================
echo
start methyloxirane_blyp-def2-tzvp_488.9_44.inp
title "methyloxirane roa calculations at 488.9 nm, input generated in va  with delta_type=2"
charge 0

geometry units angstrom nocenter noautoz noautosym nucleus point;symmetry c1
 O -0.879137 -0.180241  0.205269
 C  0.574160 -0.157553  0.122250
 C -0.185901  1.090095  0.340352
 C  1.185496 -0.520551 -1.211344
 H  1.060603 -0.605762  1.001762
 H -0.227307  1.530173  1.316272
 H -0.322600  1.769549 -0.476587
 H  2.241297 -0.216239 -1.245692
 H  1.142561 -1.604933 -1.374065
 H  0.651101 -0.026630 -2.034328
end

basis spherical
* library def2-TZVP
end

 set prop:newaoresp 1
 set aor:roadata T
 set cphf:maxsub 100
 set cphf:acc 1.0d-10
 set cphf:maxiter 100

property
    response 1   0.093196
    bdtensor
    convergence 1e-7
    damping 0.0037
    giao
end

dft
 direct
 mult 1
 xc becke88 lyp
 iterations 250
 tolerances tight
 grid xfine
 convergence nolevelshifting
 convergence energy 1e-8
 convergence gradient 1e-7

end

task dft gradient
task dft property
================================================================================

 Output coordinates in angstroms (scale by  1.889725989 to convert to a.u.)

  No.       Tag          Charge          X              Y              Z
 ---- ---------------- ---------- -------------- -------------- --------------
    1 O                    8.0000    -0.87913700    -0.18024100     0.20526900
    2 C                    6.0000     0.57416000    -0.15755300     0.12225000
    3 C                    6.0000    -0.18590100     1.09009500     0.34035200
    4 C                    6.0000     1.18549600    -0.52055100    -1.21134400
    5 H                    1.0000     1.06060300    -0.60576200     1.00176200
    6 H                    1.0000    -0.22730700     1.53017300     1.31627200
    7 H                    1.0000    -0.32260000     1.76954900    -0.47658700
    8 H                    1.0000     2.24129700    -0.21623900    -1.24569200
    9 H                    1.0000     1.14256100    -1.60493300    -1.37406500
   10 H                    1.0000     0.65110100    -0.02663000    -2.03432800

         Total DFT energy =     -193.108711218174
         Total DFT energy =     -193.108711218611

                       DFT Final Molecular Orbital Analysis
                       ------------------------------------

 Vector    1  Occ=2.000000D+00  E=-1.877913D+01

 Vector   81  Occ=0.000000D+00  E= 1.868523D+00

 Vector   82  Occ=0.000000D+00  E= 1.920951D+00

 Vector   83  Occ=0.000000D+00  E= 1.991436D+00

 Vector   84  Occ=0.000000D+00  E= 1.995452D+00

 Vector   85  Occ=0.000000D+00  E= 2.093160D+00

 Vector   86  Occ=0.000000D+00  E= 2.100368D+00

 Vector   87  Occ=0.000000D+00  E= 2.168453D+00

 Vector   88  Occ=0.000000D+00  E= 2.200616D+00

 Vector   89  Occ=0.000000D+00  E= 2.233127D+00

 Vector   90  Occ=0.000000D+00  E= 2.247617D+00

 Vector   91  Occ=0.000000D+00  E= 2.266949D+00

 Vector   92  Occ=0.000000D+00  E= 2.286268D+00

 Vector   93  Occ=0.000000D+00  E= 2.363875D+00

 Vector   94  Occ=0.000000D+00  E= 2.392498D+00

 Vector   95  Occ=0.000000D+00  E= 2.458219D+00

 Vector   96  Occ=0.000000D+00  E= 2.480881D+00

 Vector   97  Occ=0.000000D+00  E= 2.485373D+00

 Vector   98  Occ=0.000000D+00  E= 2.532164D+00

 Vector   99  Occ=0.000000D+00  E= 2.538617D+00

 Vector  100  Occ=0.000000D+00  E= 2.565618D+00

 Vector  101  Occ=0.000000D+00  E= 2.607162D+00

 Vector  102  Occ=0.000000D+00  E= 2.649370D+00

 Vector  103  Occ=0.000000D+00  E= 2.667184D+00

 Vector  104  Occ=0.000000D+00  E= 2.716674D+00

 Vector  105  Occ=0.000000D+00  E= 2.742695D+00

 Vector  106  Occ=0.000000D+00  E= 2.805408D+00

 Vector  107  Occ=0.000000D+00  E= 2.834900D+00

 Vector  108  Occ=0.000000D+00  E= 2.862428D+00

 Vector  109  Occ=0.000000D+00  E= 2.900055D+00

 Vector  110  Occ=0.000000D+00  E= 2.962608D+00

 Vector  111  Occ=0.000000D+00  E= 2.964270D+00

 Vector  112  Occ=0.000000D+00  E= 2.987490D+00

 Vector  113  Occ=0.000000D+00  E= 3.008589D+00

 Vector  114  Occ=0.000000D+00  E= 3.037644D+00

 Vector  115  Occ=0.000000D+00  E= 3.070794D+00

 Vector  116  Occ=0.000000D+00  E= 3.146623D+00

 Vector  117  Occ=0.000000D+00  E= 3.171096D+00

 Vector  118  Occ=0.000000D+00  E= 3.189737D+00

 Vector  119  Occ=0.000000D+00  E= 3.283293D+00

 Vector  120  Occ=0.000000D+00  E= 3.296245D+00

 Vector  121  Occ=0.000000D+00  E= 3.322333D+00

 Vector  122  Occ=0.000000D+00  E= 3.358532D+00

 Vector  123  Occ=0.000000D+00  E= 3.378000D+00

 Vector  124  Occ=0.000000D+00  E= 3.434566D+00

 Vector  125  Occ=0.000000D+00  E= 3.458121D+00

 Vector  126  Occ=0.000000D+00  E= 3.568894D+00

 Vector  127  Occ=0.000000D+00  E= 3.575398D+00

 Vector  128  Occ=0.000000D+00  E= 3.636808D+00

 Vector  129  Occ=0.000000D+00  E= 3.768161D+00

 Vector  130  Occ=0.000000D+00  E= 3.788670D+00

 Vector  131  Occ=0.000000D+00  E= 3.880857D+00

 Vector  132  Occ=0.000000D+00  E= 3.900422D+00

 Vector  133  Occ=0.000000D+00  E= 3.990515D+00

 Vector  134  Occ=0.000000D+00  E= 4.076958D+00

 Vector  135  Occ=0.000000D+00  E= 4.149299D+00

 Vector  136  Occ=0.000000D+00  E= 4.196545D+00

 Vector  137  Occ=0.000000D+00  E= 4.260443D+00

 Vector  138  Occ=0.000000D+00  E= 4.291610D+00

 Vector  139  Occ=0.000000D+00  E= 4.355195D+00

 Vector  140  Occ=0.000000D+00  E= 4.475610D+00

 Vector  141  Occ=0.000000D+00  E= 4.570733D+00

 Vector  142  Occ=0.000000D+00  E= 4.575743D+00

 Vector  143  Occ=0.000000D+00  E= 4.739551D+00

 Vector  144  Occ=0.000000D+00  E= 4.772867D+00

 Vector  145  Occ=0.000000D+00  E= 5.183089D+00

 Vector  146  Occ=0.000000D+00  E= 5.347674D+00

 Vector  147  Occ=0.000000D+00  E= 5.580286D+00

 Vector  148  Occ=0.000000D+00  E= 5.604898D+00

 Vector  149  Occ=0.000000D+00  E= 5.667819D+00

 Vector  150  Occ=0.000000D+00  E= 5.764623D+00

 Vector  151  Occ=0.000000D+00  E= 5.909031D+00

 Vector  152  Occ=0.000000D+00  E= 6.465530D+00

 Vector  153  Occ=0.000000D+00  E= 6.507519D+00

 Vector  154  Occ=0.000000D+00  E= 6.676721D+00

 Vector  155  Occ=0.000000D+00  E= 6.842580D+00

 Vector  156  Occ=0.000000D+00  E= 7.056806D+00

 Vector  157  Occ=0.000000D+00  E= 2.196914D+01

 Vector  158  Occ=0.000000D+00  E= 2.200697D+01

 Vector  159  Occ=0.000000D+00  E= 2.210613D+01

 Vector  160  Occ=0.000000D+00  E= 4.341409D+01

     Multipole analysis of the density
     ---------------------------------

     L   x y z        total         alpha         beta         nuclear
     -   - - -        -----         -----         ----         -------
     0   0 0 0     -0.000000    -16.000000    -16.000000     32.000000

     1   1 0 0      0.689482     -6.226865     -6.226865     13.143212
     1   0 1 0      0.335997     -1.604731     -1.604731      3.545459
     1   0 0 1     -0.056577      5.322412      5.322412    -10.701401

     2   2 0 0    -20.010259    -54.347359    -54.347359     88.684458
     2   1 1 0     -1.118347     13.886770     13.886770    -28.891888
     2   1 0 1      0.148809     26.478626     26.478626    -52.808444
     2   0 2 0    -17.780481    -40.364662    -40.364662     62.948843
     2   0 1 1      0.262717    -15.386201    -15.386201     31.035120

 Total times  cpu:      696.8s     wall:      710.0s
