============================== echo of input deck ==============================
echo
start methyloxirane_blyp-def2-tzvp_488.9_33.inp
title "methyloxirane roa calculations at 488.9 nm, input generated in va  with delta_type=2"
charge 0

geometry units angstrom nocenter noautoz noautosym nucleus point;symmetry c1
 O -0.877811 -0.179242  0.207437
 C  0.571343 -0.160309  0.121898
 C -0.186303  1.087627  0.336336
 C  1.187660 -0.517623 -1.210755
 H  1.060590 -0.597737  0.999213
 H -0.235270  1.518589  1.339579
 H -0.314689  1.796653 -0.486686
 H  2.245815 -0.222835 -1.256119
 H  1.133654 -1.604513 -1.364987
 H  0.647064 -0.032518 -2.033061
end

basis spherical
* library def2-TZVP
end

 set prop:newaoresp 1
 set aor:roadata T
 set cphf:maxsub 100
 set cphf:acc 1.0d-10
 set cphf:maxiter 100

property
    response 1   0.093196
    bdtensor
    convergence 1e-7
    damping 0.0037
    giao
end

dft
 direct
 mult 1
 xc becke88 lyp
 iterations 250
 tolerances tight
 grid xfine
 convergence nolevelshifting
 convergence energy 1e-8
 convergence gradient 1e-7

end

task dft gradient
task dft property
================================================================================

 Output coordinates in angstroms (scale by  1.889725989 to convert to a.u.)

  No.       Tag          Charge          X              Y              Z
 ---- ---------------- ---------- -------------- -------------- --------------
    1 O                    8.0000    -0.87781100    -0.17924200     0.20743700
    2 C                    6.0000     0.57134300    -0.16030900     0.12189800
    3 C                    6.0000    -0.18630300     1.08762700     0.33633600
    4 C                    6.0000     1.18766000    -0.51762300    -1.21075500
    5 H                    1.0000     1.06059000    -0.59773700     0.99921300
    6 H                    1.0000    -0.23527000     1.51858900     1.33957900
    7 H                    1.0000    -0.31468900     1.79665300    -0.48668600
    8 H                    1.0000     2.24581500    -0.22283500    -1.25611900
    9 H                    1.0000     1.13365400    -1.60451300    -1.36498700
   10 H                    1.0000     0.64706400    -0.03251800    -2.03306100

         Total DFT energy =     -193.109163784081
         Total DFT energy =     -193.109163784414

                       DFT Final Molecular Orbital Analysis
                       ------------------------------------

 Vector    1  Occ=2.000000D+00  E=-1.878038D+01

 Vector   81  Occ=0.000000D+00  E= 1.867303D+00

 Vector   82  Occ=0.000000D+00  E= 1.921701D+00

 Vector   83  Occ=0.000000D+00  E= 1.991958D+00

 Vector   84  Occ=0.000000D+00  E= 1.998731D+00

 Vector   85  Occ=0.000000D+00  E= 2.088133D+00

 Vector   86  Occ=0.000000D+00  E= 2.096664D+00

 Vector   87  Occ=0.000000D+00  E= 2.165288D+00

 Vector   88  Occ=0.000000D+00  E= 2.196640D+00

 Vector   89  Occ=0.000000D+00  E= 2.232725D+00

 Vector   90  Occ=0.000000D+00  E= 2.248001D+00

 Vector   91  Occ=0.000000D+00  E= 2.267355D+00

 Vector   92  Occ=0.000000D+00  E= 2.282982D+00

 Vector   93  Occ=0.000000D+00  E= 2.346473D+00

 Vector   94  Occ=0.000000D+00  E= 2.389935D+00

 Vector   95  Occ=0.000000D+00  E= 2.449151D+00

 Vector   96  Occ=0.000000D+00  E= 2.473772D+00

 Vector   97  Occ=0.000000D+00  E= 2.484568D+00

 Vector   98  Occ=0.000000D+00  E= 2.525649D+00

 Vector   99  Occ=0.000000D+00  E= 2.538290D+00

 Vector  100  Occ=0.000000D+00  E= 2.562881D+00

 Vector  101  Occ=0.000000D+00  E= 2.599682D+00

 Vector  102  Occ=0.000000D+00  E= 2.651966D+00

 Vector  103  Occ=0.000000D+00  E= 2.665072D+00

 Vector  104  Occ=0.000000D+00  E= 2.711437D+00

 Vector  105  Occ=0.000000D+00  E= 2.739444D+00

 Vector  106  Occ=0.000000D+00  E= 2.814042D+00

 Vector  107  Occ=0.000000D+00  E= 2.829614D+00

 Vector  108  Occ=0.000000D+00  E= 2.860144D+00

 Vector  109  Occ=0.000000D+00  E= 2.899257D+00

 Vector  110  Occ=0.000000D+00  E= 2.960431D+00

 Vector  111  Occ=0.000000D+00  E= 2.969470D+00

 Vector  112  Occ=0.000000D+00  E= 2.989636D+00

 Vector  113  Occ=0.000000D+00  E= 3.008032D+00

 Vector  114  Occ=0.000000D+00  E= 3.032776D+00

 Vector  115  Occ=0.000000D+00  E= 3.066146D+00

 Vector  116  Occ=0.000000D+00  E= 3.150702D+00

 Vector  117  Occ=0.000000D+00  E= 3.167212D+00

 Vector  118  Occ=0.000000D+00  E= 3.190446D+00

 Vector  119  Occ=0.000000D+00  E= 3.278953D+00

 Vector  120  Occ=0.000000D+00  E= 3.296838D+00

 Vector  121  Occ=0.000000D+00  E= 3.322265D+00

 Vector  122  Occ=0.000000D+00  E= 3.350905D+00

 Vector  123  Occ=0.000000D+00  E= 3.373286D+00

 Vector  124  Occ=0.000000D+00  E= 3.430692D+00

 Vector  125  Occ=0.000000D+00  E= 3.460289D+00

 Vector  126  Occ=0.000000D+00  E= 3.563342D+00

 Vector  127  Occ=0.000000D+00  E= 3.572803D+00

 Vector  128  Occ=0.000000D+00  E= 3.639130D+00

 Vector  129  Occ=0.000000D+00  E= 3.765979D+00

 Vector  130  Occ=0.000000D+00  E= 3.785158D+00

 Vector  131  Occ=0.000000D+00  E= 3.883937D+00

 Vector  132  Occ=0.000000D+00  E= 3.898534D+00

 Vector  133  Occ=0.000000D+00  E= 3.985741D+00

 Vector  134  Occ=0.000000D+00  E= 4.043229D+00

 Vector  135  Occ=0.000000D+00  E= 4.153491D+00

 Vector  136  Occ=0.000000D+00  E= 4.197182D+00

 Vector  137  Occ=0.000000D+00  E= 4.260261D+00

 Vector  138  Occ=0.000000D+00  E= 4.287598D+00

 Vector  139  Occ=0.000000D+00  E= 4.333643D+00

 Vector  140  Occ=0.000000D+00  E= 4.464508D+00

 Vector  141  Occ=0.000000D+00  E= 4.568108D+00

 Vector  142  Occ=0.000000D+00  E= 4.573534D+00

 Vector  143  Occ=0.000000D+00  E= 4.739309D+00

 Vector  144  Occ=0.000000D+00  E= 4.771391D+00

 Vector  145  Occ=0.000000D+00  E= 5.184039D+00

 Vector  146  Occ=0.000000D+00  E= 5.349172D+00

 Vector  147  Occ=0.000000D+00  E= 5.581859D+00

 Vector  148  Occ=0.000000D+00  E= 5.608809D+00

 Vector  149  Occ=0.000000D+00  E= 5.673927D+00

 Vector  150  Occ=0.000000D+00  E= 5.769156D+00

 Vector  151  Occ=0.000000D+00  E= 5.913918D+00

 Vector  152  Occ=0.000000D+00  E= 6.467832D+00

 Vector  153  Occ=0.000000D+00  E= 6.508485D+00

 Vector  154  Occ=0.000000D+00  E= 6.679141D+00

 Vector  155  Occ=0.000000D+00  E= 6.842386D+00

 Vector  156  Occ=0.000000D+00  E= 7.054758D+00

 Vector  157  Occ=0.000000D+00  E= 2.194416D+01

 Vector  158  Occ=0.000000D+00  E= 2.198219D+01

 Vector  159  Occ=0.000000D+00  E= 2.210621D+01

 Vector  160  Occ=0.000000D+00  E= 4.341918D+01

     Multipole analysis of the density
     ---------------------------------

     L   x y z        total         alpha         beta         nuclear
     -   - - -        -----         -----         ----         -------
     0   0 0 0     -0.000000    -16.000000    -16.000000     32.000000

     1   1 0 0      0.685855     -6.224698     -6.224698     13.135251
     1   0 1 0      0.322562     -1.616831     -1.616831      3.556224
     1   0 0 1     -0.059756      5.315865      5.315865    -10.691486

     2   2 0 0    -20.003434    -54.320884    -54.320884     88.638334
     2   1 1 0     -1.094622     13.901613     13.901613    -28.897848
     2   1 0 1      0.136390     26.545515     26.545515    -52.954640
     2   0 2 0    -17.862875    -40.415638    -40.415638     62.968401
     2   0 1 1      0.213345    -15.318883    -15.318883     30.851111

 Total times  cpu:      423.7s     wall:      435.6s
