============================== echo of input deck ==============================
echo
start methyloxirane_blyp-def2-tzvp_488.9_07.inp
title "methyloxirane roa calculations at 488.9 nm, input generated in va  with delta_type=2"
charge 0

geometry units angstrom nocenter noautoz noautosym nucleus point;symmetry c1
 O -0.875601 -0.176289  0.205706
 C  0.576590 -0.158105  0.118935
 C -0.188538  1.082745  0.339693
 C  1.180032 -0.517561 -1.208597
 H  1.063878 -0.616885  0.986162
 H -0.233376  1.537301  1.332989
 H -0.317329  1.775936 -0.496803
 H  2.237824 -0.215665 -1.224918
 H  1.144643 -1.605787 -1.357559
 H  0.661398 -0.032970 -2.044854
end

basis spherical
* library def2-TZVP
end

 set prop:newaoresp 1
 set aor:roadata T
 set cphf:maxsub 100
 set cphf:acc 1.0d-10
 set cphf:maxiter 100

property
    response 1   0.093196
    bdtensor
    convergence 1e-7
    damping 0.0037
    giao
end

dft
 direct
 mult 1
 xc becke88 lyp
 iterations 250
 tolerances tight
 grid xfine
 convergence nolevelshifting
 convergence energy 1e-8
 convergence gradient 1e-7

end

task dft gradient
task dft property
================================================================================

 Output coordinates in angstroms (scale by  1.889725989 to convert to a.u.)

  No.       Tag          Charge          X              Y              Z
 ---- ---------------- ---------- -------------- -------------- --------------
    1 O                    8.0000    -0.87560100    -0.17628900     0.20570600
    2 C                    6.0000     0.57659000    -0.15810500     0.11893500
    3 C                    6.0000    -0.18853800     1.08274500     0.33969300
    4 C                    6.0000     1.18003200    -0.51756100    -1.20859700
    5 H                    1.0000     1.06387800    -0.61688500     0.98616200
    6 H                    1.0000    -0.23337600     1.53730100     1.33298900
    7 H                    1.0000    -0.31732900     1.77593600    -0.49680300
    8 H                    1.0000     2.23782400    -0.21566500    -1.22491800
    9 H                    1.0000     1.14464300    -1.60578700    -1.35755900
   10 H                    1.0000     0.66139800    -0.03297000    -2.04485400

         Total DFT energy =     -193.109126091078
         Total DFT energy =     -193.109126091431

                       DFT Final Molecular Orbital Analysis
                       ------------------------------------

 Vector    1  Occ=2.000000D+00  E=-1.877942D+01

 Vector   81  Occ=0.000000D+00  E= 1.867456D+00

 Vector   82  Occ=0.000000D+00  E= 1.921807D+00

 Vector   83  Occ=0.000000D+00  E= 1.995198D+00

 Vector   84  Occ=0.000000D+00  E= 1.996729D+00

 Vector   85  Occ=0.000000D+00  E= 2.090115D+00

 Vector   86  Occ=0.000000D+00  E= 2.095682D+00

 Vector   87  Occ=0.000000D+00  E= 2.172530D+00

 Vector   88  Occ=0.000000D+00  E= 2.204007D+00

 Vector   89  Occ=0.000000D+00  E= 2.234961D+00

 Vector   90  Occ=0.000000D+00  E= 2.243177D+00

 Vector   91  Occ=0.000000D+00  E= 2.266428D+00

 Vector   92  Occ=0.000000D+00  E= 2.286775D+00

 Vector   93  Occ=0.000000D+00  E= 2.350057D+00

 Vector   94  Occ=0.000000D+00  E= 2.398262D+00

 Vector   95  Occ=0.000000D+00  E= 2.453930D+00

 Vector   96  Occ=0.000000D+00  E= 2.473644D+00

 Vector   97  Occ=0.000000D+00  E= 2.482771D+00

 Vector   98  Occ=0.000000D+00  E= 2.525269D+00

 Vector   99  Occ=0.000000D+00  E= 2.537231D+00

 Vector  100  Occ=0.000000D+00  E= 2.555363D+00

 Vector  101  Occ=0.000000D+00  E= 2.603278D+00

 Vector  102  Occ=0.000000D+00  E= 2.650826D+00

 Vector  103  Occ=0.000000D+00  E= 2.675293D+00

 Vector  104  Occ=0.000000D+00  E= 2.719830D+00

 Vector  105  Occ=0.000000D+00  E= 2.744894D+00

 Vector  106  Occ=0.000000D+00  E= 2.814650D+00

 Vector  107  Occ=0.000000D+00  E= 2.831659D+00

 Vector  108  Occ=0.000000D+00  E= 2.861312D+00

 Vector  109  Occ=0.000000D+00  E= 2.900118D+00

 Vector  110  Occ=0.000000D+00  E= 2.959243D+00

 Vector  111  Occ=0.000000D+00  E= 2.967041D+00

 Vector  112  Occ=0.000000D+00  E= 2.990058D+00

 Vector  113  Occ=0.000000D+00  E= 3.005165D+00

 Vector  114  Occ=0.000000D+00  E= 3.035765D+00

 Vector  115  Occ=0.000000D+00  E= 3.070236D+00

 Vector  116  Occ=0.000000D+00  E= 3.143002D+00

 Vector  117  Occ=0.000000D+00  E= 3.164711D+00

 Vector  118  Occ=0.000000D+00  E= 3.191670D+00

 Vector  119  Occ=0.000000D+00  E= 3.282530D+00

 Vector  120  Occ=0.000000D+00  E= 3.301082D+00

 Vector  121  Occ=0.000000D+00  E= 3.317748D+00

 Vector  122  Occ=0.000000D+00  E= 3.359258D+00

 Vector  123  Occ=0.000000D+00  E= 3.381031D+00

 Vector  124  Occ=0.000000D+00  E= 3.433367D+00

 Vector  125  Occ=0.000000D+00  E= 3.460872D+00

 Vector  126  Occ=0.000000D+00  E= 3.570158D+00

 Vector  127  Occ=0.000000D+00  E= 3.578460D+00

 Vector  128  Occ=0.000000D+00  E= 3.643360D+00

 Vector  129  Occ=0.000000D+00  E= 3.769129D+00

 Vector  130  Occ=0.000000D+00  E= 3.790121D+00

 Vector  131  Occ=0.000000D+00  E= 3.880440D+00

 Vector  132  Occ=0.000000D+00  E= 3.901773D+00

 Vector  133  Occ=0.000000D+00  E= 3.994035D+00

 Vector  134  Occ=0.000000D+00  E= 4.052506D+00

 Vector  135  Occ=0.000000D+00  E= 4.146863D+00

 Vector  136  Occ=0.000000D+00  E= 4.201317D+00

 Vector  137  Occ=0.000000D+00  E= 4.272888D+00

 Vector  138  Occ=0.000000D+00  E= 4.299003D+00

 Vector  139  Occ=0.000000D+00  E= 4.348076D+00

 Vector  140  Occ=0.000000D+00  E= 4.475206D+00

 Vector  141  Occ=0.000000D+00  E= 4.561840D+00

 Vector  142  Occ=0.000000D+00  E= 4.573594D+00

 Vector  143  Occ=0.000000D+00  E= 4.744916D+00

 Vector  144  Occ=0.000000D+00  E= 4.768417D+00

 Vector  145  Occ=0.000000D+00  E= 5.186862D+00

 Vector  146  Occ=0.000000D+00  E= 5.353190D+00

 Vector  147  Occ=0.000000D+00  E= 5.592106D+00

 Vector  148  Occ=0.000000D+00  E= 5.614183D+00

 Vector  149  Occ=0.000000D+00  E= 5.673562D+00

 Vector  150  Occ=0.000000D+00  E= 5.776122D+00

 Vector  151  Occ=0.000000D+00  E= 5.918801D+00

 Vector  152  Occ=0.000000D+00  E= 6.469939D+00

 Vector  153  Occ=0.000000D+00  E= 6.514190D+00

 Vector  154  Occ=0.000000D+00  E= 6.679772D+00

 Vector  155  Occ=0.000000D+00  E= 6.844096D+00

 Vector  156  Occ=0.000000D+00  E= 7.056585D+00

 Vector  157  Occ=0.000000D+00  E= 2.195794D+01

 Vector  158  Occ=0.000000D+00  E= 2.198437D+01

 Vector  159  Occ=0.000000D+00  E= 2.211937D+01

 Vector  160  Occ=0.000000D+00  E= 4.342019D+01

     Multipole analysis of the density
     ---------------------------------

     L   x y z        total         alpha         beta         nuclear
     -   - - -        -----         -----         ----         -------
     0   0 0 0     -0.000000    -16.000000    -16.000000     32.000000

     1   1 0 0      0.687767     -6.233057     -6.233057     13.153880
     1   0 1 0      0.313868     -1.613826     -1.613826      3.541520
     1   0 0 1     -0.059435      5.317403      5.317403    -10.694241

     2   2 0 0    -20.008218    -54.176023    -54.176023     88.343829
     2   1 1 0     -1.115126     13.945347     13.945347    -29.005819
     2   1 0 1      0.154906     26.365227     26.365227    -52.575548
     2   0 2 0    -17.863631    -40.292514    -40.292514     62.721398
     2   0 1 1      0.229178    -15.289401    -15.289401     30.807980

 Total times  cpu:      739.8s     wall:      748.7s
