============================== echo of input deck ==============================
echo
start methyloxirane_blyp-def2-tzvp_488.9_09.inp
title "methyloxirane roa calculations at 488.9 nm, input generated in va  with delta_type=2"
charge 0

geometry units angstrom nocenter noautoz noautosym nucleus point;symmetry c1
 O -0.880412 -0.181347  0.203077
 C  0.577056 -0.154984  0.123279
 C -0.184731  1.089080  0.343896
 C  1.183179 -0.523192 -1.212078
 H  1.056617 -0.609993  0.997026
 H -0.220834  1.557561  1.331521
 H -0.336004  1.768215 -0.499622
 H  2.237457 -0.209371 -1.235349
 H  1.151288 -1.607748 -1.383553
 H  0.656529 -0.022010 -2.033596
end

basis spherical
* library def2-TZVP
end

 set prop:newaoresp 1
 set aor:roadata T
 set cphf:maxsub 100
 set cphf:acc 1.0d-10
 set cphf:maxiter 100

property
    response 1   0.093196
    bdtensor
    convergence 1e-7
    damping 0.0037
    giao
end

dft
 direct
 mult 1
 xc becke88 lyp
 iterations 250
 tolerances tight
 grid xfine
 convergence nolevelshifting
 convergence energy 1e-8
 convergence gradient 1e-7

end

task dft gradient
task dft property
================================================================================

 Output coordinates in angstroms (scale by  1.889725989 to convert to a.u.)

  No.       Tag          Charge          X              Y              Z
 ---- ---------------- ---------- -------------- -------------- --------------
    1 O                    8.0000    -0.88041200    -0.18134700     0.20307700
    2 C                    6.0000     0.57705600    -0.15498400     0.12327900
    3 C                    6.0000    -0.18473100     1.08908000     0.34389600
    4 C                    6.0000     1.18317900    -0.52319200    -1.21207800
    5 H                    1.0000     1.05661700    -0.60999300     0.99702600
    6 H                    1.0000    -0.22083400     1.55756100     1.33152100
    7 H                    1.0000    -0.33600400     1.76821500    -0.49962200
    8 H                    1.0000     2.23745700    -0.20937100    -1.23534900
    9 H                    1.0000     1.15128800    -1.60774800    -1.38355300
   10 H                    1.0000     0.65652900    -0.02201000    -2.03359600

         Total DFT energy =     -193.109164712587
         Total DFT energy =     -193.109164712565

                       DFT Final Molecular Orbital Analysis
                       ------------------------------------

 Vector    1  Occ=2.000000D+00  E=-1.877907D+01

 Vector   81  Occ=0.000000D+00  E= 1.867544D+00

 Vector   82  Occ=0.000000D+00  E= 1.920629D+00

 Vector   83  Occ=0.000000D+00  E= 1.987963D+00

 Vector   84  Occ=0.000000D+00  E= 1.991889D+00

 Vector   85  Occ=0.000000D+00  E= 2.089964D+00

 Vector   86  Occ=0.000000D+00  E= 2.098464D+00

 Vector   87  Occ=0.000000D+00  E= 2.166786D+00

 Vector   88  Occ=0.000000D+00  E= 2.202634D+00

 Vector   89  Occ=0.000000D+00  E= 2.224966D+00

 Vector   90  Occ=0.000000D+00  E= 2.241136D+00

 Vector   91  Occ=0.000000D+00  E= 2.265665D+00

 Vector   92  Occ=0.000000D+00  E= 2.283582D+00

 Vector   93  Occ=0.000000D+00  E= 2.354312D+00

 Vector   94  Occ=0.000000D+00  E= 2.384330D+00

 Vector   95  Occ=0.000000D+00  E= 2.452261D+00

 Vector   96  Occ=0.000000D+00  E= 2.472554D+00

 Vector   97  Occ=0.000000D+00  E= 2.482982D+00

 Vector   98  Occ=0.000000D+00  E= 2.524617D+00

 Vector   99  Occ=0.000000D+00  E= 2.526753D+00

 Vector  100  Occ=0.000000D+00  E= 2.556480D+00

 Vector  101  Occ=0.000000D+00  E= 2.597201D+00

 Vector  102  Occ=0.000000D+00  E= 2.646551D+00

 Vector  103  Occ=0.000000D+00  E= 2.671533D+00

 Vector  104  Occ=0.000000D+00  E= 2.719878D+00

 Vector  105  Occ=0.000000D+00  E= 2.740622D+00

 Vector  106  Occ=0.000000D+00  E= 2.799067D+00

 Vector  107  Occ=0.000000D+00  E= 2.834449D+00

 Vector  108  Occ=0.000000D+00  E= 2.863983D+00

 Vector  109  Occ=0.000000D+00  E= 2.898813D+00

 Vector  110  Occ=0.000000D+00  E= 2.959654D+00

 Vector  111  Occ=0.000000D+00  E= 2.963982D+00

 Vector  112  Occ=0.000000D+00  E= 2.988144D+00

 Vector  113  Occ=0.000000D+00  E= 3.006658D+00

 Vector  114  Occ=0.000000D+00  E= 3.036346D+00

 Vector  115  Occ=0.000000D+00  E= 3.071872D+00

 Vector  116  Occ=0.000000D+00  E= 3.141653D+00

 Vector  117  Occ=0.000000D+00  E= 3.166935D+00

 Vector  118  Occ=0.000000D+00  E= 3.189793D+00

 Vector  119  Occ=0.000000D+00  E= 3.278175D+00

 Vector  120  Occ=0.000000D+00  E= 3.288102D+00

 Vector  121  Occ=0.000000D+00  E= 3.311937D+00

 Vector  122  Occ=0.000000D+00  E= 3.356908D+00

 Vector  123  Occ=0.000000D+00  E= 3.373018D+00

 Vector  124  Occ=0.000000D+00  E= 3.429837D+00

 Vector  125  Occ=0.000000D+00  E= 3.452854D+00

 Vector  126  Occ=0.000000D+00  E= 3.565178D+00

 Vector  127  Occ=0.000000D+00  E= 3.571619D+00

 Vector  128  Occ=0.000000D+00  E= 3.633108D+00

 Vector  129  Occ=0.000000D+00  E= 3.766761D+00

 Vector  130  Occ=0.000000D+00  E= 3.784533D+00

 Vector  131  Occ=0.000000D+00  E= 3.878026D+00

 Vector  132  Occ=0.000000D+00  E= 3.897188D+00

 Vector  133  Occ=0.000000D+00  E= 3.988813D+00

 Vector  134  Occ=0.000000D+00  E= 4.053028D+00

 Vector  135  Occ=0.000000D+00  E= 4.137140D+00

 Vector  136  Occ=0.000000D+00  E= 4.195209D+00

 Vector  137  Occ=0.000000D+00  E= 4.261523D+00

 Vector  138  Occ=0.000000D+00  E= 4.288828D+00

 Vector  139  Occ=0.000000D+00  E= 4.342287D+00

 Vector  140  Occ=0.000000D+00  E= 4.474953D+00

 Vector  141  Occ=0.000000D+00  E= 4.552947D+00

 Vector  142  Occ=0.000000D+00  E= 4.571554D+00

 Vector  143  Occ=0.000000D+00  E= 4.736035D+00

 Vector  144  Occ=0.000000D+00  E= 4.771022D+00

 Vector  145  Occ=0.000000D+00  E= 5.179954D+00

 Vector  146  Occ=0.000000D+00  E= 5.344571D+00

 Vector  147  Occ=0.000000D+00  E= 5.573990D+00

 Vector  148  Occ=0.000000D+00  E= 5.599184D+00

 Vector  149  Occ=0.000000D+00  E= 5.660497D+00

 Vector  150  Occ=0.000000D+00  E= 5.757784D+00

 Vector  151  Occ=0.000000D+00  E= 5.904129D+00

 Vector  152  Occ=0.000000D+00  E= 6.461452D+00

 Vector  153  Occ=0.000000D+00  E= 6.506689D+00

 Vector  154  Occ=0.000000D+00  E= 6.673909D+00

 Vector  155  Occ=0.000000D+00  E= 6.841943D+00

 Vector  156  Occ=0.000000D+00  E= 7.056808D+00

 Vector  157  Occ=0.000000D+00  E= 2.193602D+01

 Vector  158  Occ=0.000000D+00  E= 2.198113D+01

 Vector  159  Occ=0.000000D+00  E= 2.209613D+01

 Vector  160  Occ=0.000000D+00  E= 4.340935D+01

     Multipole analysis of the density
     ---------------------------------

     L   x y z        total         alpha         beta         nuclear
     -   - - -        -----         -----         ----         -------
     0   0 0 0     -0.000000    -16.000000    -16.000000     32.000000

     1   1 0 0      0.694966     -6.223832     -6.223832     13.142630
     1   0 1 0      0.328647     -1.622698     -1.622698      3.574043
     1   0 0 1     -0.054690      5.328493      5.328493    -10.711676

     2   2 0 0    -20.049554    -54.384550    -54.384550     88.719546
     2   1 1 0     -1.127387     13.894000     13.894000    -28.915387
     2   1 0 1      0.168149     26.427847     26.427847    -52.687545
     2   0 2 0    -17.812916    -40.546108    -40.546108     63.279299
     2   0 1 1      0.286976    -15.485166    -15.485166     31.257309

 Total times  cpu:      463.2s     wall:      468.9s
