============================== echo of input deck ==============================
echo
start methyloxirane_blyp-def2-tzvp_488.9_15.inp
title "methyloxirane roa calculations at 488.9 nm, input generated in va  with delta_type=2"
charge 0

geometry units angstrom nocenter noautoz noautosym nucleus point;symmetry c1
 O -0.878523 -0.179459  0.204953
 C  0.570684 -0.154351  0.125828
 C -0.185117  1.086794  0.339260
 C  1.188027 -0.522502 -1.213737
 H  1.072732 -0.613496  0.985643
 H -0.225558  1.530447  1.337109
 H -0.327513  1.777351 -0.496134
 H  2.240435 -0.205222 -1.239037
 H  1.131813 -1.608218 -1.369998
 H  0.645914 -0.022713 -2.026313
end

basis spherical
* library def2-TZVP
end

 set prop:newaoresp 1
 set aor:roadata T
 set cphf:maxsub 100
 set cphf:acc 1.0d-10
 set cphf:maxiter 100

property
    response 1   0.093196
    bdtensor
    convergence 1e-7
    damping 0.0037
    giao
end

dft
 direct
 mult 1
 xc becke88 lyp
 iterations 250
 tolerances tight
 grid xfine
 convergence nolevelshifting
 convergence energy 1e-8
 convergence gradient 1e-7

end

task dft gradient
task dft property
================================================================================

 Output coordinates in angstroms (scale by  1.889725989 to convert to a.u.)

  No.       Tag          Charge          X              Y              Z
 ---- ---------------- ---------- -------------- -------------- --------------
    1 O                    8.0000    -0.87852300    -0.17945900     0.20495300
    2 C                    6.0000     0.57068400    -0.15435100     0.12582800
    3 C                    6.0000    -0.18511700     1.08679400     0.33926000
    4 C                    6.0000     1.18802700    -0.52250200    -1.21373700
    5 H                    1.0000     1.07273200    -0.61349600     0.98564300
    6 H                    1.0000    -0.22555800     1.53044700     1.33710900
    7 H                    1.0000    -0.32751300     1.77735100    -0.49613400
    8 H                    1.0000     2.24043500    -0.20522200    -1.23903700
    9 H                    1.0000     1.13181300    -1.60821800    -1.36999800
   10 H                    1.0000     0.64591400    -0.02271300    -2.02631300

         Total DFT energy =     -193.109104555781
         Total DFT energy =     -193.109104555884

                       DFT Final Molecular Orbital Analysis
                       ------------------------------------

 Vector    1  Occ=2.000000D+00  E=-1.878007D+01

 Vector   81  Occ=0.000000D+00  E= 1.867370D+00

 Vector   82  Occ=0.000000D+00  E= 1.923040D+00

 Vector   83  Occ=0.000000D+00  E= 1.988855D+00

 Vector   84  Occ=0.000000D+00  E= 1.991994D+00

 Vector   85  Occ=0.000000D+00  E= 2.090439D+00

 Vector   86  Occ=0.000000D+00  E= 2.098589D+00

 Vector   87  Occ=0.000000D+00  E= 2.165327D+00

 Vector   88  Occ=0.000000D+00  E= 2.202900D+00

 Vector   89  Occ=0.000000D+00  E= 2.231205D+00

 Vector   90  Occ=0.000000D+00  E= 2.244326D+00

 Vector   91  Occ=0.000000D+00  E= 2.259081D+00

 Vector   92  Occ=0.000000D+00  E= 2.284706D+00

 Vector   93  Occ=0.000000D+00  E= 2.351170D+00

 Vector   94  Occ=0.000000D+00  E= 2.387198D+00

 Vector   95  Occ=0.000000D+00  E= 2.454402D+00

 Vector   96  Occ=0.000000D+00  E= 2.474573D+00

 Vector   97  Occ=0.000000D+00  E= 2.478364D+00

 Vector   98  Occ=0.000000D+00  E= 2.521778D+00

 Vector   99  Occ=0.000000D+00  E= 2.533593D+00

 Vector  100  Occ=0.000000D+00  E= 2.564328D+00

 Vector  101  Occ=0.000000D+00  E= 2.598319D+00

 Vector  102  Occ=0.000000D+00  E= 2.643229D+00

 Vector  103  Occ=0.000000D+00  E= 2.671068D+00

 Vector  104  Occ=0.000000D+00  E= 2.713323D+00

 Vector  105  Occ=0.000000D+00  E= 2.740371D+00

 Vector  106  Occ=0.000000D+00  E= 2.811342D+00

 Vector  107  Occ=0.000000D+00  E= 2.833737D+00

 Vector  108  Occ=0.000000D+00  E= 2.861689D+00

 Vector  109  Occ=0.000000D+00  E= 2.899326D+00

 Vector  110  Occ=0.000000D+00  E= 2.963509D+00

 Vector  111  Occ=0.000000D+00  E= 2.969488D+00

 Vector  112  Occ=0.000000D+00  E= 2.990181D+00

 Vector  113  Occ=0.000000D+00  E= 3.011348D+00

 Vector  114  Occ=0.000000D+00  E= 3.037772D+00

 Vector  115  Occ=0.000000D+00  E= 3.069684D+00

 Vector  116  Occ=0.000000D+00  E= 3.151883D+00

 Vector  117  Occ=0.000000D+00  E= 3.167773D+00

 Vector  118  Occ=0.000000D+00  E= 3.198602D+00

 Vector  119  Occ=0.000000D+00  E= 3.279130D+00

 Vector  120  Occ=0.000000D+00  E= 3.293408D+00

 Vector  121  Occ=0.000000D+00  E= 3.321097D+00

 Vector  122  Occ=0.000000D+00  E= 3.350466D+00

 Vector  123  Occ=0.000000D+00  E= 3.373336D+00

 Vector  124  Occ=0.000000D+00  E= 3.430598D+00

 Vector  125  Occ=0.000000D+00  E= 3.461232D+00

 Vector  126  Occ=0.000000D+00  E= 3.561462D+00

 Vector  127  Occ=0.000000D+00  E= 3.570745D+00

 Vector  128  Occ=0.000000D+00  E= 3.639510D+00

 Vector  129  Occ=0.000000D+00  E= 3.767242D+00

 Vector  130  Occ=0.000000D+00  E= 3.786214D+00

 Vector  131  Occ=0.000000D+00  E= 3.871982D+00

 Vector  132  Occ=0.000000D+00  E= 3.896614D+00

 Vector  133  Occ=0.000000D+00  E= 3.997260D+00

 Vector  134  Occ=0.000000D+00  E= 4.043276D+00

 Vector  135  Occ=0.000000D+00  E= 4.150918D+00

 Vector  136  Occ=0.000000D+00  E= 4.191471D+00

 Vector  137  Occ=0.000000D+00  E= 4.251476D+00

 Vector  138  Occ=0.000000D+00  E= 4.280216D+00

 Vector  139  Occ=0.000000D+00  E= 4.342652D+00

 Vector  140  Occ=0.000000D+00  E= 4.482235D+00

 Vector  141  Occ=0.000000D+00  E= 4.560584D+00

 Vector  142  Occ=0.000000D+00  E= 4.571653D+00

 Vector  143  Occ=0.000000D+00  E= 4.738661D+00

 Vector  144  Occ=0.000000D+00  E= 4.770274D+00

 Vector  145  Occ=0.000000D+00  E= 5.182634D+00

 Vector  146  Occ=0.000000D+00  E= 5.347185D+00

 Vector  147  Occ=0.000000D+00  E= 5.581154D+00

 Vector  148  Occ=0.000000D+00  E= 5.606940D+00

 Vector  149  Occ=0.000000D+00  E= 5.668226D+00

 Vector  150  Occ=0.000000D+00  E= 5.768995D+00

 Vector  151  Occ=0.000000D+00  E= 5.913586D+00

 Vector  152  Occ=0.000000D+00  E= 6.464359D+00

 Vector  153  Occ=0.000000D+00  E= 6.507800D+00

 Vector  154  Occ=0.000000D+00  E= 6.677476D+00

 Vector  155  Occ=0.000000D+00  E= 6.842635D+00

 Vector  156  Occ=0.000000D+00  E= 7.054288D+00

 Vector  157  Occ=0.000000D+00  E= 2.194426D+01

 Vector  158  Occ=0.000000D+00  E= 2.198114D+01

 Vector  159  Occ=0.000000D+00  E= 2.210370D+01

 Vector  160  Occ=0.000000D+00  E= 4.341658D+01

     Multipole analysis of the density
     ---------------------------------

     L   x y z        total         alpha         beta         nuclear
     -   - - -        -----         -----         ----         -------
     0   0 0 0     -0.000000    -16.000000    -16.000000     32.000000

     1   1 0 0      0.681766     -6.227051     -6.227051     13.135869
     1   0 1 0      0.328414     -1.614141     -1.614141      3.556697
     1   0 0 1     -0.050218      5.323760      5.323760    -10.697739

     2   2 0 0    -20.025118    -54.345914    -54.345914     88.666710
     2   1 1 0     -1.085831     13.882242     13.882242    -28.850315
     2   1 0 1      0.196607     26.444352     26.444352    -52.692096
     2   0 2 0    -17.824850    -40.394903    -40.394903     62.964956
     2   0 1 1      0.228189    -15.366430    -15.366430     30.961049

 Total times  cpu:      700.3s     wall:      719.8s
