============================== echo of input deck ==============================
echo
start methyloxirane_blyp-def2-tzvp_488.9_05.inp
title "methyloxirane roa calculations at 488.9 nm, input generated in va  with delta_type=2"
charge 0

geometry units angstrom nocenter noautoz noautosym nucleus point;symmetry c1
 O -0.872300 -0.177717  0.205916
 C  0.570605 -0.163141  0.124492
 C -0.190389  1.092876  0.341918
 C  1.186520 -0.522972 -1.214779
 H  1.053906 -0.612913  0.999217
 H -0.247835  1.545601  1.335362
 H -0.328148  1.782116 -0.495930
 H  2.241185 -0.213092 -1.245171
 H  1.148489 -1.607636 -1.386314
 H  0.653113 -0.025735 -2.034513
end

basis spherical
* library def2-TZVP
end

 set prop:newaoresp 1
 set aor:roadata T
 set cphf:maxsub 100
 set cphf:acc 1.0d-10
 set cphf:maxiter 100

property
    response 1   0.093196
    bdtensor
    convergence 1e-7
    damping 0.0037
    giao
end

dft
 direct
 mult 1
 xc becke88 lyp
 iterations 250
 tolerances tight
 grid xfine
 convergence nolevelshifting
 convergence energy 1e-8
 convergence gradient 1e-7

end

task dft gradient
task dft property
================================================================================

 Output coordinates in angstroms (scale by  1.889725989 to convert to a.u.)

  No.       Tag          Charge          X              Y              Z
 ---- ---------------- ---------- -------------- -------------- --------------
    1 O                    8.0000    -0.87230000    -0.17771700     0.20591600
    2 C                    6.0000     0.57060500    -0.16314100     0.12449200
    3 C                    6.0000    -0.19038900     1.09287600     0.34191800
    4 C                    6.0000     1.18652000    -0.52297200    -1.21477900
    5 H                    1.0000     1.05390600    -0.61291300     0.99921700
    6 H                    1.0000    -0.24783500     1.54560100     1.33536200
    7 H                    1.0000    -0.32814800     1.78211600    -0.49593000
    8 H                    1.0000     2.24118500    -0.21309200    -1.24517100
    9 H                    1.0000     1.14848900    -1.60763600    -1.38631400
   10 H                    1.0000     0.65311300    -0.02573500    -2.03451300

         Total DFT energy =     -193.109188398919
         Total DFT energy =     -193.109188399377

                       DFT Final Molecular Orbital Analysis
                       ------------------------------------

 Vector    1  Occ=2.000000D+00  E=-1.878010D+01

 Vector   81  Occ=0.000000D+00  E= 1.867119D+00

 Vector   82  Occ=0.000000D+00  E= 1.923463D+00

 Vector   83  Occ=0.000000D+00  E= 1.991653D+00

 Vector   84  Occ=0.000000D+00  E= 1.994734D+00

 Vector   85  Occ=0.000000D+00  E= 2.086199D+00

 Vector   86  Occ=0.000000D+00  E= 2.093569D+00

 Vector   87  Occ=0.000000D+00  E= 2.163808D+00

 Vector   88  Occ=0.000000D+00  E= 2.200278D+00

 Vector   89  Occ=0.000000D+00  E= 2.228389D+00

 Vector   90  Occ=0.000000D+00  E= 2.244839D+00

 Vector   91  Occ=0.000000D+00  E= 2.267152D+00

 Vector   92  Occ=0.000000D+00  E= 2.278296D+00

 Vector   93  Occ=0.000000D+00  E= 2.351799D+00

 Vector   94  Occ=0.000000D+00  E= 2.385183D+00

 Vector   95  Occ=0.000000D+00  E= 2.448101D+00

 Vector   96  Occ=0.000000D+00  E= 2.472679D+00

 Vector   97  Occ=0.000000D+00  E= 2.484115D+00

 Vector   98  Occ=0.000000D+00  E= 2.523677D+00

 Vector   99  Occ=0.000000D+00  E= 2.530440D+00

 Vector  100  Occ=0.000000D+00  E= 2.558843D+00

 Vector  101  Occ=0.000000D+00  E= 2.601651D+00

 Vector  102  Occ=0.000000D+00  E= 2.647469D+00

 Vector  103  Occ=0.000000D+00  E= 2.670292D+00

 Vector  104  Occ=0.000000D+00  E= 2.718085D+00

 Vector  105  Occ=0.000000D+00  E= 2.739204D+00

 Vector  106  Occ=0.000000D+00  E= 2.806551D+00

 Vector  107  Occ=0.000000D+00  E= 2.832303D+00

 Vector  108  Occ=0.000000D+00  E= 2.859821D+00

 Vector  109  Occ=0.000000D+00  E= 2.898573D+00

 Vector  110  Occ=0.000000D+00  E= 2.962089D+00

 Vector  111  Occ=0.000000D+00  E= 2.966844D+00

 Vector  112  Occ=0.000000D+00  E= 2.987092D+00

 Vector  113  Occ=0.000000D+00  E= 3.007277D+00

 Vector  114  Occ=0.000000D+00  E= 3.034614D+00

 Vector  115  Occ=0.000000D+00  E= 3.066021D+00

 Vector  116  Occ=0.000000D+00  E= 3.146076D+00

 Vector  117  Occ=0.000000D+00  E= 3.166169D+00

 Vector  118  Occ=0.000000D+00  E= 3.189285D+00

 Vector  119  Occ=0.000000D+00  E= 3.275790D+00

 Vector  120  Occ=0.000000D+00  E= 3.291425D+00

 Vector  121  Occ=0.000000D+00  E= 3.311553D+00

 Vector  122  Occ=0.000000D+00  E= 3.353903D+00

 Vector  123  Occ=0.000000D+00  E= 3.371608D+00

 Vector  124  Occ=0.000000D+00  E= 3.429938D+00

 Vector  125  Occ=0.000000D+00  E= 3.450446D+00

 Vector  126  Occ=0.000000D+00  E= 3.561400D+00

 Vector  127  Occ=0.000000D+00  E= 3.572123D+00

 Vector  128  Occ=0.000000D+00  E= 3.631395D+00

 Vector  129  Occ=0.000000D+00  E= 3.758767D+00

 Vector  130  Occ=0.000000D+00  E= 3.783239D+00

 Vector  131  Occ=0.000000D+00  E= 3.874651D+00

 Vector  132  Occ=0.000000D+00  E= 3.894588D+00

 Vector  133  Occ=0.000000D+00  E= 3.978777D+00

 Vector  134  Occ=0.000000D+00  E= 4.046503D+00

 Vector  135  Occ=0.000000D+00  E= 4.139967D+00

 Vector  136  Occ=0.000000D+00  E= 4.191139D+00

 Vector  137  Occ=0.000000D+00  E= 4.252016D+00

 Vector  138  Occ=0.000000D+00  E= 4.284638D+00

 Vector  139  Occ=0.000000D+00  E= 4.339831D+00

 Vector  140  Occ=0.000000D+00  E= 4.463804D+00

 Vector  141  Occ=0.000000D+00  E= 4.545883D+00

 Vector  142  Occ=0.000000D+00  E= 4.575424D+00

 Vector  143  Occ=0.000000D+00  E= 4.738008D+00

 Vector  144  Occ=0.000000D+00  E= 4.773122D+00

 Vector  145  Occ=0.000000D+00  E= 5.188176D+00

 Vector  146  Occ=0.000000D+00  E= 5.353237D+00

 Vector  147  Occ=0.000000D+00  E= 5.583667D+00

 Vector  148  Occ=0.000000D+00  E= 5.614664D+00

 Vector  149  Occ=0.000000D+00  E= 5.683308D+00

 Vector  150  Occ=0.000000D+00  E= 5.771838D+00

 Vector  151  Occ=0.000000D+00  E= 5.919774D+00

 Vector  152  Occ=0.000000D+00  E= 6.473972D+00

 Vector  153  Occ=0.000000D+00  E= 6.514428D+00

 Vector  154  Occ=0.000000D+00  E= 6.681142D+00

 Vector  155  Occ=0.000000D+00  E= 6.842857D+00

 Vector  156  Occ=0.000000D+00  E= 7.055890D+00

 Vector  157  Occ=0.000000D+00  E= 2.193381D+01

 Vector  158  Occ=0.000000D+00  E= 2.198321D+01

 Vector  159  Occ=0.000000D+00  E= 2.209454D+01

 Vector  160  Occ=0.000000D+00  E= 4.342112D+01

     Multipole analysis of the density
     ---------------------------------

     L   x y z        total         alpha         beta         nuclear
     -   - - -        -----         -----         ----         -------
     0   0 0 0     -0.000000    -16.000000    -16.000000     32.000000

     1   1 0 0      0.670164     -6.224843     -6.224843     13.119850
     1   0 1 0      0.319703     -1.623278     -1.623278      3.566259
     1   0 0 1     -0.055815      5.329688      5.329688    -10.715190

     2   2 0 0    -20.038004    -54.217314    -54.217314     88.396625
     2   1 1 0     -1.132041     14.154669     14.154669    -29.441380
     2   1 0 1      0.129111     26.626513     26.626513    -53.123916
     2   0 2 0    -17.830874    -40.681248    -40.681248     63.531622
     2   0 1 1      0.252654    -15.502937    -15.502937     31.258529

 Total times  cpu:      419.3s     wall:      430.7s
