============================== echo of input deck ==============================
echo
start methyloxirane_blyp-def2-tzvp_488.9_39.inp
title "methyloxirane roa calculations at 488.9 nm, input generated in va  with delta_type=2"
charge 0

geometry units angstrom nocenter noautoz noautosym nucleus point;symmetry c1
 O -0.879701 -0.181130  0.205562
 C  0.577715 -0.160942  0.119349
 C -0.185917  1.089913  0.340972
 C  1.182813 -0.518313 -1.209096
 H  1.044475 -0.594234  1.010597
 H -0.230546  1.545704  1.333991
 H -0.323180  1.787517 -0.490174
 H  2.242838 -0.226983 -1.252432
 H  1.153130 -1.604044 -1.378542
 H  0.657679 -0.031815 -2.040344
end

basis spherical
* library def2-TZVP
end

 set prop:newaoresp 1
 set aor:roadata T
 set cphf:maxsub 100
 set cphf:acc 1.0d-10
 set cphf:maxiter 100

property
    response 1   0.093196
    bdtensor
    convergence 1e-7
    damping 0.0037
    giao
end

dft
 direct
 mult 1
 xc becke88 lyp
 iterations 250
 tolerances tight
 grid xfine
 convergence nolevelshifting
 convergence energy 1e-8
 convergence gradient 1e-7

end

task dft gradient
task dft property
================================================================================

 Output coordinates in angstroms (scale by  1.889725989 to convert to a.u.)

  No.       Tag          Charge          X              Y              Z
 ---- ---------------- ---------- -------------- -------------- --------------
    1 O                    8.0000    -0.87970100    -0.18113000     0.20556200
    2 C                    6.0000     0.57771500    -0.16094200     0.11934900
    3 C                    6.0000    -0.18591700     1.08991300     0.34097200
    4 C                    6.0000     1.18281300    -0.51831300    -1.20909600
    5 H                    1.0000     1.04447500    -0.59423400     1.01059700
    6 H                    1.0000    -0.23054600     1.54570400     1.33399100
    7 H                    1.0000    -0.32318000     1.78751700    -0.49017400
    8 H                    1.0000     2.24283800    -0.22698300    -1.25243200
    9 H                    1.0000     1.15313000    -1.60404400    -1.37854200
   10 H                    1.0000     0.65767900    -0.03181500    -2.04034400

         Total DFT energy =     -193.109103800099
         Total DFT energy =     -193.109103800365

                       DFT Final Molecular Orbital Analysis
                       ------------------------------------

 Vector    1  Occ=2.000000D+00  E=-1.877938D+01

 Vector   81  Occ=0.000000D+00  E= 1.867231D+00

 Vector   82  Occ=0.000000D+00  E= 1.918530D+00

 Vector   83  Occ=0.000000D+00  E= 1.990578D+00

 Vector   84  Occ=0.000000D+00  E= 2.000321D+00

 Vector   85  Occ=0.000000D+00  E= 2.087408D+00

 Vector   86  Occ=0.000000D+00  E= 2.096573D+00

 Vector   87  Occ=0.000000D+00  E= 2.166445D+00

 Vector   88  Occ=0.000000D+00  E= 2.195862D+00

 Vector   89  Occ=0.000000D+00  E= 2.227268D+00

 Vector   90  Occ=0.000000D+00  E= 2.243144D+00

 Vector   91  Occ=0.000000D+00  E= 2.271470D+00

 Vector   92  Occ=0.000000D+00  E= 2.284491D+00

 Vector   93  Occ=0.000000D+00  E= 2.349965D+00

 Vector   94  Occ=0.000000D+00  E= 2.387570D+00

 Vector   95  Occ=0.000000D+00  E= 2.446727D+00

 Vector   96  Occ=0.000000D+00  E= 2.472490D+00

 Vector   97  Occ=0.000000D+00  E= 2.489098D+00

 Vector   98  Occ=0.000000D+00  E= 2.528550D+00

 Vector   99  Occ=0.000000D+00  E= 2.533378D+00

 Vector  100  Occ=0.000000D+00  E= 2.554473D+00

 Vector  101  Occ=0.000000D+00  E= 2.599564D+00

 Vector  102  Occ=0.000000D+00  E= 2.653343D+00

 Vector  103  Occ=0.000000D+00  E= 2.667699D+00

 Vector  104  Occ=0.000000D+00  E= 2.718832D+00

 Vector  105  Occ=0.000000D+00  E= 2.740119D+00

 Vector  106  Occ=0.000000D+00  E= 2.801513D+00

 Vector  107  Occ=0.000000D+00  E= 2.829363D+00

 Vector  108  Occ=0.000000D+00  E= 2.861674D+00

 Vector  109  Occ=0.000000D+00  E= 2.897934D+00

 Vector  110  Occ=0.000000D+00  E= 2.957628D+00

 Vector  111  Occ=0.000000D+00  E= 2.962861D+00

 Vector  112  Occ=0.000000D+00  E= 2.987682D+00

 Vector  113  Occ=0.000000D+00  E= 3.003920D+00

 Vector  114  Occ=0.000000D+00  E= 3.031579D+00

 Vector  115  Occ=0.000000D+00  E= 3.068263D+00

 Vector  116  Occ=0.000000D+00  E= 3.140915D+00

 Vector  117  Occ=0.000000D+00  E= 3.165979D+00

 Vector  118  Occ=0.000000D+00  E= 3.182520D+00

 Vector  119  Occ=0.000000D+00  E= 3.277433D+00

 Vector  120  Occ=0.000000D+00  E= 3.289949D+00

 Vector  121  Occ=0.000000D+00  E= 3.313114D+00

 Vector  122  Occ=0.000000D+00  E= 3.358957D+00

 Vector  123  Occ=0.000000D+00  E= 3.372375D+00

 Vector  124  Occ=0.000000D+00  E= 3.429097D+00

 Vector  125  Occ=0.000000D+00  E= 3.451964D+00

 Vector  126  Occ=0.000000D+00  E= 3.565510D+00

 Vector  127  Occ=0.000000D+00  E= 3.575122D+00

 Vector  128  Occ=0.000000D+00  E= 3.633033D+00

 Vector  129  Occ=0.000000D+00  E= 3.765776D+00

 Vector  130  Occ=0.000000D+00  E= 3.782952D+00

 Vector  131  Occ=0.000000D+00  E= 3.888708D+00

 Vector  132  Occ=0.000000D+00  E= 3.899903D+00

 Vector  133  Occ=0.000000D+00  E= 3.979520D+00

 Vector  134  Occ=0.000000D+00  E= 4.054509D+00

 Vector  135  Occ=0.000000D+00  E= 4.136798D+00

 Vector  136  Occ=0.000000D+00  E= 4.200902D+00

 Vector  137  Occ=0.000000D+00  E= 4.267874D+00

 Vector  138  Occ=0.000000D+00  E= 4.298107D+00

 Vector  139  Occ=0.000000D+00  E= 4.335995D+00

 Vector  140  Occ=0.000000D+00  E= 4.455390D+00

 Vector  141  Occ=0.000000D+00  E= 4.561953D+00

 Vector  142  Occ=0.000000D+00  E= 4.573950D+00

 Vector  143  Occ=0.000000D+00  E= 4.737322D+00

 Vector  144  Occ=0.000000D+00  E= 4.770673D+00

 Vector  145  Occ=0.000000D+00  E= 5.181281D+00

 Vector  146  Occ=0.000000D+00  E= 5.346405D+00

 Vector  147  Occ=0.000000D+00  E= 5.574251D+00

 Vector  148  Occ=0.000000D+00  E= 5.600890D+00

 Vector  149  Occ=0.000000D+00  E= 5.666082D+00

 Vector  150  Occ=0.000000D+00  E= 5.758170D+00

 Vector  151  Occ=0.000000D+00  E= 5.904577D+00

 Vector  152  Occ=0.000000D+00  E= 6.465004D+00

 Vector  153  Occ=0.000000D+00  E= 6.506528D+00

 Vector  154  Occ=0.000000D+00  E= 6.675672D+00

 Vector  155  Occ=0.000000D+00  E= 6.841587D+00

 Vector  156  Occ=0.000000D+00  E= 7.057048D+00

 Vector  157  Occ=0.000000D+00  E= 2.193618D+01

 Vector  158  Occ=0.000000D+00  E= 2.198139D+01

 Vector  159  Occ=0.000000D+00  E= 2.210092D+01

 Vector  160  Occ=0.000000D+00  E= 4.341170D+01

     Multipole analysis of the density
     ---------------------------------

     L   x y z        total         alpha         beta         nuclear
     -   - - -        -----         -----         ----         -------
     0   0 0 0     -0.000000    -16.000000    -16.000000     32.000000

     1   1 0 0      0.698868     -6.221572     -6.221572     13.142012
     1   0 1 0      0.323064     -1.625254     -1.625254      3.573572
     1   0 0 1     -0.064157      5.320625      5.320625    -10.705407

     2   2 0 0    -20.028254    -54.360115    -54.360115     88.691976
     2   1 1 0     -1.136857     13.915351     13.915351    -28.967558
     2   1 0 1      0.106889     26.529759     26.529759    -52.952629
     2   0 2 0    -17.850792    -40.565478    -40.565478     63.280165
     2   0 1 1      0.273232    -15.437633    -15.437633     31.148497

 Total times  cpu:      688.8s     wall:      707.7s
