============================== echo of input deck ==============================
echo
start methyloxirane_blyp-def2-tzvp_488.9_18.inp
title "methyloxirane roa calculations at 488.9 nm, input generated in va  with delta_type=2"
charge 0

geometry units angstrom nocenter noautoz noautosym nucleus point;symmetry c1
 O -0.878417 -0.180276  0.205171
 C  0.572277 -0.156328  0.123328
 C -0.184806  1.084629  0.339506
 C  1.185660 -0.520406 -1.211450
 H  1.060913 -0.605132  0.995237
 H -0.230009  1.556305  1.325682
 H -0.326433  1.797725 -0.478558
 H  2.242782 -0.219366 -1.245887
 H  1.144913 -1.605928 -1.376889
 H  0.649484 -0.028114 -2.032159
end

basis spherical
* library def2-TZVP
end

 set prop:newaoresp 1
 set aor:roadata T
 set cphf:maxsub 100
 set cphf:acc 1.0d-10
 set cphf:maxiter 100

property
    response 1   0.093196
    bdtensor
    convergence 1e-7
    damping 0.0037
    giao
end

dft
 direct
 mult 1
 xc becke88 lyp
 iterations 250
 tolerances tight
 grid xfine
 convergence nolevelshifting
 convergence energy 1e-8
 convergence gradient 1e-7

end

task dft gradient
task dft property
================================================================================

 Output coordinates in angstroms (scale by  1.889725989 to convert to a.u.)

  No.       Tag          Charge          X              Y              Z
 ---- ---------------- ---------- -------------- -------------- --------------
    1 O                    8.0000    -0.87841700    -0.18027600     0.20517100
    2 C                    6.0000     0.57227700    -0.15632800     0.12332800
    3 C                    6.0000    -0.18480600     1.08462900     0.33950600
    4 C                    6.0000     1.18566000    -0.52040600    -1.21145000
    5 H                    1.0000     1.06091300    -0.60513200     0.99523700
    6 H                    1.0000    -0.23000900     1.55630500     1.32568200
    7 H                    1.0000    -0.32643300     1.79772500    -0.47855800
    8 H                    1.0000     2.24278200    -0.21936600    -1.24588700
    9 H                    1.0000     1.14491300    -1.60592800    -1.37688900
   10 H                    1.0000     0.64948400    -0.02811400    -2.03215900

         Total DFT energy =     -193.109138173194
         Total DFT energy =     -193.109138173518

                       DFT Final Molecular Orbital Analysis
                       ------------------------------------

 Vector    1  Occ=2.000000D+00  E=-1.878060D+01

 Vector   81  Occ=0.000000D+00  E= 1.866773D+00

 Vector   82  Occ=0.000000D+00  E= 1.921528D+00

 Vector   83  Occ=0.000000D+00  E= 1.992458D+00

 Vector   84  Occ=0.000000D+00  E= 1.993641D+00

 Vector   85  Occ=0.000000D+00  E= 2.085647D+00

 Vector   86  Occ=0.000000D+00  E= 2.095427D+00

 Vector   87  Occ=0.000000D+00  E= 2.168071D+00

 Vector   88  Occ=0.000000D+00  E= 2.198358D+00

 Vector   89  Occ=0.000000D+00  E= 2.230165D+00

 Vector   90  Occ=0.000000D+00  E= 2.241497D+00

 Vector   91  Occ=0.000000D+00  E= 2.267274D+00

 Vector   92  Occ=0.000000D+00  E= 2.286643D+00

 Vector   93  Occ=0.000000D+00  E= 2.342366D+00

 Vector   94  Occ=0.000000D+00  E= 2.381418D+00

 Vector   95  Occ=0.000000D+00  E= 2.453693D+00

 Vector   96  Occ=0.000000D+00  E= 2.476694D+00

 Vector   97  Occ=0.000000D+00  E= 2.486426D+00

 Vector   98  Occ=0.000000D+00  E= 2.523359D+00

 Vector   99  Occ=0.000000D+00  E= 2.532471D+00

 Vector  100  Occ=0.000000D+00  E= 2.558188D+00

 Vector  101  Occ=0.000000D+00  E= 2.602314D+00

 Vector  102  Occ=0.000000D+00  E= 2.648043D+00

 Vector  103  Occ=0.000000D+00  E= 2.668508D+00

 Vector  104  Occ=0.000000D+00  E= 2.715773D+00

 Vector  105  Occ=0.000000D+00  E= 2.737011D+00

 Vector  106  Occ=0.000000D+00  E= 2.806929D+00

 Vector  107  Occ=0.000000D+00  E= 2.828035D+00

 Vector  108  Occ=0.000000D+00  E= 2.859916D+00

 Vector  109  Occ=0.000000D+00  E= 2.894860D+00

 Vector  110  Occ=0.000000D+00  E= 2.960166D+00

 Vector  111  Occ=0.000000D+00  E= 2.966410D+00

 Vector  112  Occ=0.000000D+00  E= 2.987433D+00

 Vector  113  Occ=0.000000D+00  E= 3.008999D+00

 Vector  114  Occ=0.000000D+00  E= 3.032600D+00

 Vector  115  Occ=0.000000D+00  E= 3.069710D+00

 Vector  116  Occ=0.000000D+00  E= 3.146533D+00

 Vector  117  Occ=0.000000D+00  E= 3.166977D+00

 Vector  118  Occ=0.000000D+00  E= 3.190193D+00

 Vector  119  Occ=0.000000D+00  E= 3.278651D+00

 Vector  120  Occ=0.000000D+00  E= 3.294553D+00

 Vector  121  Occ=0.000000D+00  E= 3.321249D+00

 Vector  122  Occ=0.000000D+00  E= 3.356370D+00

 Vector  123  Occ=0.000000D+00  E= 3.371737D+00

 Vector  124  Occ=0.000000D+00  E= 3.427161D+00

 Vector  125  Occ=0.000000D+00  E= 3.457461D+00

 Vector  126  Occ=0.000000D+00  E= 3.564959D+00

 Vector  127  Occ=0.000000D+00  E= 3.574345D+00

 Vector  128  Occ=0.000000D+00  E= 3.637392D+00

 Vector  129  Occ=0.000000D+00  E= 3.767103D+00

 Vector  130  Occ=0.000000D+00  E= 3.784177D+00

 Vector  131  Occ=0.000000D+00  E= 3.881868D+00

 Vector  132  Occ=0.000000D+00  E= 3.902701D+00

 Vector  133  Occ=0.000000D+00  E= 3.994897D+00

 Vector  134  Occ=0.000000D+00  E= 4.077463D+00

 Vector  135  Occ=0.000000D+00  E= 4.144906D+00

 Vector  136  Occ=0.000000D+00  E= 4.199410D+00

 Vector  137  Occ=0.000000D+00  E= 4.258353D+00

 Vector  138  Occ=0.000000D+00  E= 4.287208D+00

 Vector  139  Occ=0.000000D+00  E= 4.335037D+00

 Vector  140  Occ=0.000000D+00  E= 4.473686D+00

 Vector  141  Occ=0.000000D+00  E= 4.560011D+00

 Vector  142  Occ=0.000000D+00  E= 4.569810D+00

 Vector  143  Occ=0.000000D+00  E= 4.741102D+00

 Vector  144  Occ=0.000000D+00  E= 4.772597D+00

 Vector  145  Occ=0.000000D+00  E= 5.182972D+00

 Vector  146  Occ=0.000000D+00  E= 5.346712D+00

 Vector  147  Occ=0.000000D+00  E= 5.582476D+00

 Vector  148  Occ=0.000000D+00  E= 5.607196D+00

 Vector  149  Occ=0.000000D+00  E= 5.669987D+00

 Vector  150  Occ=0.000000D+00  E= 5.768263D+00

 Vector  151  Occ=0.000000D+00  E= 5.912941D+00

 Vector  152  Occ=0.000000D+00  E= 6.464225D+00

 Vector  153  Occ=0.000000D+00  E= 6.504695D+00

 Vector  154  Occ=0.000000D+00  E= 6.677342D+00

 Vector  155  Occ=0.000000D+00  E= 6.842400D+00

 Vector  156  Occ=0.000000D+00  E= 7.053809D+00

 Vector  157  Occ=0.000000D+00  E= 2.194813D+01

 Vector  158  Occ=0.000000D+00  E= 2.198451D+01

 Vector  159  Occ=0.000000D+00  E= 2.210767D+01

 Vector  160  Occ=0.000000D+00  E= 4.341534D+01

     Multipole analysis of the density
     ---------------------------------

     L   x y z        total         alpha         beta         nuclear
     -   - - -        -----         -----         ----         -------
     0   0 0 0     -0.000000    -16.000000    -16.000000     32.000000

     1   1 0 0      0.686635     -6.226409     -6.226409     13.139454
     1   0 1 0      0.324889     -1.633411     -1.633411      3.591711
     1   0 0 1     -0.056524      5.322404      5.322404    -10.701333

     2   2 0 0    -19.999729    -54.326272    -54.326272     88.652814
     2   1 1 0     -1.121400     13.920736     13.920736    -28.962873
     2   1 0 1      0.149986     26.494387     26.494387    -52.838788
     2   0 2 0    -17.795261    -40.569547    -40.569547     63.343834
     2   0 1 1      0.266054    -15.441721    -15.441721     31.149496

 Total times  cpu:      607.4s     wall:      620.6s
