============================== echo of input deck ==============================
echo
start methyloxirane_blyp-def2-tzvp_488.9_17.inp
title "methyloxirane roa calculations at 488.9 nm, input generated in va  with delta_type=2"
charge 0

geometry units angstrom nocenter noautoz noautosym nucleus point;symmetry c1
 O -0.878941 -0.180116  0.205290
 C  0.573093 -0.156989  0.122754
 C -0.185476  1.088280  0.340061
 C  1.184346 -0.520451 -1.212440
 H  1.060932 -0.605120  0.995373
 H -0.227838  1.535124  1.336600
 H -0.325168  1.780024 -0.495065
 H  2.244972 -0.229828 -1.249535
 H  1.161373 -1.608488 -1.365040
 H  0.649613 -0.013813 -2.024792
end

basis spherical
* library def2-TZVP
end

 set prop:newaoresp 1
 set aor:roadata T
 set cphf:maxsub 100
 set cphf:acc 1.0d-10
 set cphf:maxiter 100

property
    response 1   0.093196
    bdtensor
    convergence 1e-7
    damping 0.0037
    giao
end

dft
 direct
 mult 1
 xc becke88 lyp
 iterations 250
 tolerances tight
 grid xfine
 convergence nolevelshifting
 convergence energy 1e-8
 convergence gradient 1e-7

end

task dft gradient
task dft property
================================================================================

 Output coordinates in angstroms (scale by  1.889725989 to convert to a.u.)

  No.       Tag          Charge          X              Y              Z
 ---- ---------------- ---------- -------------- -------------- --------------
    1 O                    8.0000    -0.87894100    -0.18011600     0.20529000
    2 C                    6.0000     0.57309300    -0.15698900     0.12275400
    3 C                    6.0000    -0.18547600     1.08828000     0.34006100
    4 C                    6.0000     1.18434600    -0.52045100    -1.21244000
    5 H                    1.0000     1.06093200    -0.60512000     0.99537300
    6 H                    1.0000    -0.22783800     1.53512400     1.33660000
    7 H                    1.0000    -0.32516800     1.78002400    -0.49506500
    8 H                    1.0000     2.24497200    -0.22982800    -1.24953500
    9 H                    1.0000     1.16137300    -1.60848800    -1.36504000
   10 H                    1.0000     0.64961300    -0.01381300    -2.02479200

         Total DFT energy =     -193.109171391027
         Total DFT energy =     -193.109171391131

                       DFT Final Molecular Orbital Analysis
                       ------------------------------------

 Vector    1  Occ=2.000000D+00  E=-1.877978D+01

 Vector   81  Occ=0.000000D+00  E= 1.865338D+00

 Vector   82  Occ=0.000000D+00  E= 1.920623D+00

 Vector   83  Occ=0.000000D+00  E= 1.991125D+00

 Vector   84  Occ=0.000000D+00  E= 1.998749D+00

 Vector   85  Occ=0.000000D+00  E= 2.088459D+00

 Vector   86  Occ=0.000000D+00  E= 2.096749D+00

 Vector   87  Occ=0.000000D+00  E= 2.166961D+00

 Vector   88  Occ=0.000000D+00  E= 2.200048D+00

 Vector   89  Occ=0.000000D+00  E= 2.233654D+00

 Vector   90  Occ=0.000000D+00  E= 2.236899D+00

 Vector   91  Occ=0.000000D+00  E= 2.267820D+00

 Vector   92  Occ=0.000000D+00  E= 2.286894D+00

 Vector   93  Occ=0.000000D+00  E= 2.352520D+00

 Vector   94  Occ=0.000000D+00  E= 2.385126D+00

 Vector   95  Occ=0.000000D+00  E= 2.447144D+00

 Vector   96  Occ=0.000000D+00  E= 2.468476D+00

 Vector   97  Occ=0.000000D+00  E= 2.492405D+00

 Vector   98  Occ=0.000000D+00  E= 2.526567D+00

 Vector   99  Occ=0.000000D+00  E= 2.532550D+00

 Vector  100  Occ=0.000000D+00  E= 2.563599D+00

 Vector  101  Occ=0.000000D+00  E= 2.597968D+00

 Vector  102  Occ=0.000000D+00  E= 2.649771D+00

 Vector  103  Occ=0.000000D+00  E= 2.669211D+00

 Vector  104  Occ=0.000000D+00  E= 2.716102D+00

 Vector  105  Occ=0.000000D+00  E= 2.736792D+00

 Vector  106  Occ=0.000000D+00  E= 2.806580D+00

 Vector  107  Occ=0.000000D+00  E= 2.831818D+00

 Vector  108  Occ=0.000000D+00  E= 2.861199D+00

 Vector  109  Occ=0.000000D+00  E= 2.896237D+00

 Vector  110  Occ=0.000000D+00  E= 2.961123D+00

 Vector  111  Occ=0.000000D+00  E= 2.965519D+00

 Vector  112  Occ=0.000000D+00  E= 2.990837D+00

 Vector  113  Occ=0.000000D+00  E= 3.012626D+00

 Vector  114  Occ=0.000000D+00  E= 3.033667D+00

 Vector  115  Occ=0.000000D+00  E= 3.068717D+00

 Vector  116  Occ=0.000000D+00  E= 3.146413D+00

 Vector  117  Occ=0.000000D+00  E= 3.167572D+00

 Vector  118  Occ=0.000000D+00  E= 3.191030D+00

 Vector  119  Occ=0.000000D+00  E= 3.278640D+00

 Vector  120  Occ=0.000000D+00  E= 3.298024D+00

 Vector  121  Occ=0.000000D+00  E= 3.313685D+00

 Vector  122  Occ=0.000000D+00  E= 3.351910D+00

 Vector  123  Occ=0.000000D+00  E= 3.374603D+00

 Vector  124  Occ=0.000000D+00  E= 3.430101D+00

 Vector  125  Occ=0.000000D+00  E= 3.459572D+00

 Vector  126  Occ=0.000000D+00  E= 3.563294D+00

 Vector  127  Occ=0.000000D+00  E= 3.571732D+00

 Vector  128  Occ=0.000000D+00  E= 3.636044D+00

 Vector  129  Occ=0.000000D+00  E= 3.765495D+00

 Vector  130  Occ=0.000000D+00  E= 3.787656D+00

 Vector  131  Occ=0.000000D+00  E= 3.884175D+00

 Vector  132  Occ=0.000000D+00  E= 3.897873D+00

 Vector  133  Occ=0.000000D+00  E= 3.990145D+00

 Vector  134  Occ=0.000000D+00  E= 4.045792D+00

 Vector  135  Occ=0.000000D+00  E= 4.127426D+00

 Vector  136  Occ=0.000000D+00  E= 4.192241D+00

 Vector  137  Occ=0.000000D+00  E= 4.260816D+00

 Vector  138  Occ=0.000000D+00  E= 4.301777D+00

 Vector  139  Occ=0.000000D+00  E= 4.338488D+00

 Vector  140  Occ=0.000000D+00  E= 4.475598D+00

 Vector  141  Occ=0.000000D+00  E= 4.559831D+00

 Vector  142  Occ=0.000000D+00  E= 4.573049D+00

 Vector  143  Occ=0.000000D+00  E= 4.737780D+00

 Vector  144  Occ=0.000000D+00  E= 4.770195D+00

 Vector  145  Occ=0.000000D+00  E= 5.182182D+00

 Vector  146  Occ=0.000000D+00  E= 5.347263D+00

 Vector  147  Occ=0.000000D+00  E= 5.578212D+00

 Vector  148  Occ=0.000000D+00  E= 5.604421D+00

 Vector  149  Occ=0.000000D+00  E= 5.667924D+00

 Vector  150  Occ=0.000000D+00  E= 5.765018D+00

 Vector  151  Occ=0.000000D+00  E= 5.910115D+00

 Vector  152  Occ=0.000000D+00  E= 6.464772D+00

 Vector  153  Occ=0.000000D+00  E= 6.507752D+00

 Vector  154  Occ=0.000000D+00  E= 6.676956D+00

 Vector  155  Occ=0.000000D+00  E= 6.842323D+00

 Vector  156  Occ=0.000000D+00  E= 7.055363D+00

 Vector  157  Occ=0.000000D+00  E= 2.194108D+01

 Vector  158  Occ=0.000000D+00  E= 2.198229D+01

 Vector  159  Occ=0.000000D+00  E= 2.210280D+01

 Vector  160  Occ=0.000000D+00  E= 4.341561D+01

     Multipole analysis of the density
     ---------------------------------

     L   x y z        total         alpha         beta         nuclear
     -   - - -        -----         -----         ----         -------
     0   0 0 0     -0.000000    -16.000000    -16.000000     32.000000

     1   1 0 0      0.693289     -6.233508     -6.233508     13.160305
     1   0 1 0      0.324903     -1.615791     -1.615791      3.556485
     1   0 0 1     -0.053695      5.319082      5.319082    -10.691860

     2   2 0 0    -20.003034    -54.402840    -54.402840     88.802646
     2   1 1 0     -1.160882     13.965095     13.965095    -29.091072
     2   1 0 1      0.141273     26.512375     26.512375    -52.883478
     2   0 2 0    -17.829703    -40.465650    -40.465650     63.101598
     2   0 1 1      0.231094    -15.372596    -15.372596     30.976287

 Total times  cpu:      461.2s     wall:      471.8s
