============================== echo of input deck ==============================
echo
start methyloxirane_blyp-def2-tzvp_488.9_20.inp
title "methyloxirane roa calculations at 488.9 nm, input generated in va  with delta_type=2"
charge 0

geometry units angstrom nocenter noautoz noautosym nucleus point;symmetry c1
 O -0.879086 -0.180348  0.205246
 C  0.574239 -0.157740  0.122927
 C -0.185133  1.086612  0.339881
 C  1.185344 -0.520264 -1.211488
 H  1.056605 -0.601969  0.994478
 H -0.228797  1.545977  1.354827
 H -0.328093  1.795319 -0.509721
 H  2.241976 -0.215967 -1.245776
 H  1.142382 -1.607329 -1.374475
 H  0.652492 -0.027898 -2.032329
end

basis spherical
* library def2-TZVP
end

 set prop:newaoresp 1
 set aor:roadata T
 set cphf:maxsub 100
 set cphf:acc 1.0d-10
 set cphf:maxiter 100

property
    response 1   0.093196
    bdtensor
    convergence 1e-7
    damping 0.0037
    giao
end

dft
 direct
 mult 1
 xc becke88 lyp
 iterations 250
 tolerances tight
 grid xfine
 convergence nolevelshifting
 convergence energy 1e-8
 convergence gradient 1e-7

end

task dft gradient
task dft property
================================================================================

 Output coordinates in angstroms (scale by  1.889725989 to convert to a.u.)

  No.       Tag          Charge          X              Y              Z
 ---- ---------------- ---------- -------------- -------------- --------------
    1 O                    8.0000    -0.87908600    -0.18034800     0.20524600
    2 C                    6.0000     0.57423900    -0.15774000     0.12292700
    3 C                    6.0000    -0.18513300     1.08661200     0.33988100
    4 C                    6.0000     1.18534400    -0.52026400    -1.21148800
    5 H                    1.0000     1.05660500    -0.60196900     0.99447800
    6 H                    1.0000    -0.22879700     1.54597700     1.35482700
    7 H                    1.0000    -0.32809300     1.79531900    -0.50972100
    8 H                    1.0000     2.24197600    -0.21596700    -1.24577600
    9 H                    1.0000     1.14238200    -1.60732900    -1.37447500
   10 H                    1.0000     0.65249200    -0.02789800    -2.03232900

         Total DFT energy =     -193.108759807097
         Total DFT energy =     -193.108759807427

                       DFT Final Molecular Orbital Analysis
                       ------------------------------------

 Vector    1  Occ=2.000000D+00  E=-1.878035D+01

 Vector   81  Occ=0.000000D+00  E= 1.866574D+00

 Vector   82  Occ=0.000000D+00  E= 1.920810D+00

 Vector   83  Occ=0.000000D+00  E= 1.990970D+00

 Vector   84  Occ=0.000000D+00  E= 1.993220D+00

 Vector   85  Occ=0.000000D+00  E= 2.085278D+00

 Vector   86  Occ=0.000000D+00  E= 2.094288D+00

 Vector   87  Occ=0.000000D+00  E= 2.163125D+00

 Vector   88  Occ=0.000000D+00  E= 2.199115D+00

 Vector   89  Occ=0.000000D+00  E= 2.223803D+00

 Vector   90  Occ=0.000000D+00  E= 2.240547D+00

 Vector   91  Occ=0.000000D+00  E= 2.266261D+00

 Vector   92  Occ=0.000000D+00  E= 2.279655D+00

 Vector   93  Occ=0.000000D+00  E= 2.336771D+00

 Vector   94  Occ=0.000000D+00  E= 2.382355D+00

 Vector   95  Occ=0.000000D+00  E= 2.440945D+00

 Vector   96  Occ=0.000000D+00  E= 2.469237D+00

 Vector   97  Occ=0.000000D+00  E= 2.482878D+00

 Vector   98  Occ=0.000000D+00  E= 2.520044D+00

 Vector   99  Occ=0.000000D+00  E= 2.528444D+00

 Vector  100  Occ=0.000000D+00  E= 2.555560D+00

 Vector  101  Occ=0.000000D+00  E= 2.592737D+00

 Vector  102  Occ=0.000000D+00  E= 2.649311D+00

 Vector  103  Occ=0.000000D+00  E= 2.669179D+00

 Vector  104  Occ=0.000000D+00  E= 2.715348D+00

 Vector  105  Occ=0.000000D+00  E= 2.736904D+00

 Vector  106  Occ=0.000000D+00  E= 2.806598D+00

 Vector  107  Occ=0.000000D+00  E= 2.828296D+00

 Vector  108  Occ=0.000000D+00  E= 2.861251D+00

 Vector  109  Occ=0.000000D+00  E= 2.898608D+00

 Vector  110  Occ=0.000000D+00  E= 2.958507D+00

 Vector  111  Occ=0.000000D+00  E= 2.966735D+00

 Vector  112  Occ=0.000000D+00  E= 2.990715D+00

 Vector  113  Occ=0.000000D+00  E= 3.006603D+00

 Vector  114  Occ=0.000000D+00  E= 3.032182D+00

 Vector  115  Occ=0.000000D+00  E= 3.066969D+00

 Vector  116  Occ=0.000000D+00  E= 3.145566D+00

 Vector  117  Occ=0.000000D+00  E= 3.164214D+00

 Vector  118  Occ=0.000000D+00  E= 3.191239D+00

 Vector  119  Occ=0.000000D+00  E= 3.273252D+00

 Vector  120  Occ=0.000000D+00  E= 3.288795D+00

 Vector  121  Occ=0.000000D+00  E= 3.312494D+00

 Vector  122  Occ=0.000000D+00  E= 3.348564D+00

 Vector  123  Occ=0.000000D+00  E= 3.369316D+00

 Vector  124  Occ=0.000000D+00  E= 3.427607D+00

 Vector  125  Occ=0.000000D+00  E= 3.455001D+00

 Vector  126  Occ=0.000000D+00  E= 3.560018D+00

 Vector  127  Occ=0.000000D+00  E= 3.569001D+00

 Vector  128  Occ=0.000000D+00  E= 3.636127D+00

 Vector  129  Occ=0.000000D+00  E= 3.764318D+00

 Vector  130  Occ=0.000000D+00  E= 3.781556D+00

 Vector  131  Occ=0.000000D+00  E= 3.880225D+00

 Vector  132  Occ=0.000000D+00  E= 3.894549D+00

 Vector  133  Occ=0.000000D+00  E= 3.981524D+00

 Vector  134  Occ=0.000000D+00  E= 4.026087D+00

 Vector  135  Occ=0.000000D+00  E= 4.141207D+00

 Vector  136  Occ=0.000000D+00  E= 4.196680D+00

 Vector  137  Occ=0.000000D+00  E= 4.260960D+00

 Vector  138  Occ=0.000000D+00  E= 4.283425D+00

 Vector  139  Occ=0.000000D+00  E= 4.322388D+00

 Vector  140  Occ=0.000000D+00  E= 4.466438D+00

 Vector  141  Occ=0.000000D+00  E= 4.551399D+00

 Vector  142  Occ=0.000000D+00  E= 4.571694D+00

 Vector  143  Occ=0.000000D+00  E= 4.736989D+00

 Vector  144  Occ=0.000000D+00  E= 4.769137D+00

 Vector  145  Occ=0.000000D+00  E= 5.180798D+00

 Vector  146  Occ=0.000000D+00  E= 5.345828D+00

 Vector  147  Occ=0.000000D+00  E= 5.575190D+00

 Vector  148  Occ=0.000000D+00  E= 5.602914D+00

 Vector  149  Occ=0.000000D+00  E= 5.666517D+00

 Vector  150  Occ=0.000000D+00  E= 5.762900D+00

 Vector  151  Occ=0.000000D+00  E= 5.909157D+00

 Vector  152  Occ=0.000000D+00  E= 6.463775D+00

 Vector  153  Occ=0.000000D+00  E= 6.506698D+00

 Vector  154  Occ=0.000000D+00  E= 6.676211D+00

 Vector  155  Occ=0.000000D+00  E= 6.841630D+00

 Vector  156  Occ=0.000000D+00  E= 7.054457D+00

 Vector  157  Occ=0.000000D+00  E= 2.188887D+01

 Vector  158  Occ=0.000000D+00  E= 2.197903D+01

 Vector  159  Occ=0.000000D+00  E= 2.210275D+01

 Vector  160  Occ=0.000000D+00  E= 4.341422D+01

     Multipole analysis of the density
     ---------------------------------

     L   x y z        total         alpha         beta         nuclear
     -   - - -        -----         -----         ----         -------
     0   0 0 0     -0.000000    -16.000000    -16.000000     32.000000

     1   1 0 0      0.691422     -6.221632     -6.221632     13.134686
     1   0 1 0      0.314737     -1.635034     -1.635034      3.584805
     1   0 0 1     -0.057929      5.321897      5.321897    -10.701722

     2   2 0 0    -20.040932    -54.355897    -54.355897     88.670862
     2   1 1 0     -1.103889     13.910292     13.910292    -28.924473
     2   1 0 1      0.155777     26.494554     26.494554    -52.833330
     2   0 2 0    -17.895557    -40.595273    -40.595273     63.294989
     2   0 1 1      0.237290    -15.417195    -15.417195     31.071681

 Total times  cpu:      426.2s     wall:      434.1s
