============================== echo of input deck ==============================
echo
start methyloxirane_blyp-def2-tzvp_488.9_21.inp
title "methyloxirane roa calculations at 488.9 nm, input generated in va  with delta_type=2"
charge 0

geometry units angstrom nocenter noautoz noautosym nucleus point;symmetry c1
 O -0.879135 -0.180285  0.205279
 C  0.573472 -0.156891  0.121127
 C -0.185459  1.088053  0.340262
 C  1.185966 -0.520680 -1.210926
 H  1.067649 -0.612531  1.015182
 H -0.228196  1.538570  1.336791
 H -0.325760  1.784851 -0.496290
 H  2.238661 -0.217127 -1.245657
 H  1.142694 -1.605351 -1.374089
 H  0.647887 -0.023591 -2.039274
end

basis spherical
* library def2-TZVP
end

 set prop:newaoresp 1
 set aor:roadata T
 set cphf:maxsub 100
 set cphf:acc 1.0d-10
 set cphf:maxiter 100

property
    response 1   0.093196
    bdtensor
    convergence 1e-7
    damping 0.0037
    giao
end

dft
 direct
 mult 1
 xc becke88 lyp
 iterations 250
 tolerances tight
 grid xfine
 convergence nolevelshifting
 convergence energy 1e-8
 convergence gradient 1e-7

end

task dft gradient
task dft property
================================================================================

 Output coordinates in angstroms (scale by  1.889725989 to convert to a.u.)

  No.       Tag          Charge          X              Y              Z
 ---- ---------------- ---------- -------------- -------------- --------------
    1 O                    8.0000    -0.87913500    -0.18028500     0.20527900
    2 C                    6.0000     0.57347200    -0.15689100     0.12112700
    3 C                    6.0000    -0.18545900     1.08805300     0.34026200
    4 C                    6.0000     1.18596600    -0.52068000    -1.21092600
    5 H                    1.0000     1.06764900    -0.61253100     1.01518200
    6 H                    1.0000    -0.22819600     1.53857000     1.33679100
    7 H                    1.0000    -0.32576000     1.78485100    -0.49629000
    8 H                    1.0000     2.23866100    -0.21712700    -1.24565700
    9 H                    1.0000     1.14269400    -1.60535100    -1.37408900
   10 H                    1.0000     0.64788700    -0.02359100    -2.03927400

         Total DFT energy =     -193.108969511547
         Total DFT energy =     -193.108969511909

                       DFT Final Molecular Orbital Analysis
                       ------------------------------------

 Vector    1  Occ=2.000000D+00  E=-1.878015D+01

 Vector   81  Occ=0.000000D+00  E= 1.863375D+00

 Vector   82  Occ=0.000000D+00  E= 1.920139D+00

 Vector   83  Occ=0.000000D+00  E= 1.991590D+00

 Vector   84  Occ=0.000000D+00  E= 1.993095D+00

 Vector   85  Occ=0.000000D+00  E= 2.085639D+00

 Vector   86  Occ=0.000000D+00  E= 2.096788D+00

 Vector   87  Occ=0.000000D+00  E= 2.163946D+00

 Vector   88  Occ=0.000000D+00  E= 2.196992D+00

 Vector   89  Occ=0.000000D+00  E= 2.226191D+00

 Vector   90  Occ=0.000000D+00  E= 2.239737D+00

 Vector   91  Occ=0.000000D+00  E= 2.265253D+00

 Vector   92  Occ=0.000000D+00  E= 2.277476D+00

 Vector   93  Occ=0.000000D+00  E= 2.348108D+00

 Vector   94  Occ=0.000000D+00  E= 2.384231D+00

 Vector   95  Occ=0.000000D+00  E= 2.446418D+00

 Vector   96  Occ=0.000000D+00  E= 2.470433D+00

 Vector   97  Occ=0.000000D+00  E= 2.480978D+00

 Vector   98  Occ=0.000000D+00  E= 2.515288D+00

 Vector   99  Occ=0.000000D+00  E= 2.529400D+00

 Vector  100  Occ=0.000000D+00  E= 2.553853D+00

 Vector  101  Occ=0.000000D+00  E= 2.597492D+00

 Vector  102  Occ=0.000000D+00  E= 2.646324D+00

 Vector  103  Occ=0.000000D+00  E= 2.668830D+00

 Vector  104  Occ=0.000000D+00  E= 2.711631D+00

 Vector  105  Occ=0.000000D+00  E= 2.738827D+00

 Vector  106  Occ=0.000000D+00  E= 2.806440D+00

 Vector  107  Occ=0.000000D+00  E= 2.824177D+00

 Vector  108  Occ=0.000000D+00  E= 2.862125D+00

 Vector  109  Occ=0.000000D+00  E= 2.898145D+00

 Vector  110  Occ=0.000000D+00  E= 2.960160D+00

 Vector  111  Occ=0.000000D+00  E= 2.968535D+00

 Vector  112  Occ=0.000000D+00  E= 2.987980D+00

 Vector  113  Occ=0.000000D+00  E= 3.005996D+00

 Vector  114  Occ=0.000000D+00  E= 3.033600D+00

 Vector  115  Occ=0.000000D+00  E= 3.071759D+00

 Vector  116  Occ=0.000000D+00  E= 3.145768D+00

 Vector  117  Occ=0.000000D+00  E= 3.166898D+00

 Vector  118  Occ=0.000000D+00  E= 3.189164D+00

 Vector  119  Occ=0.000000D+00  E= 3.276518D+00

 Vector  120  Occ=0.000000D+00  E= 3.292227D+00

 Vector  121  Occ=0.000000D+00  E= 3.310813D+00

 Vector  122  Occ=0.000000D+00  E= 3.353503D+00

 Vector  123  Occ=0.000000D+00  E= 3.372347D+00

 Vector  124  Occ=0.000000D+00  E= 3.424391D+00

 Vector  125  Occ=0.000000D+00  E= 3.452087D+00

 Vector  126  Occ=0.000000D+00  E= 3.562316D+00

 Vector  127  Occ=0.000000D+00  E= 3.570804D+00

 Vector  128  Occ=0.000000D+00  E= 3.629460D+00

 Vector  129  Occ=0.000000D+00  E= 3.766762D+00

 Vector  130  Occ=0.000000D+00  E= 3.784647D+00

 Vector  131  Occ=0.000000D+00  E= 3.879737D+00

 Vector  132  Occ=0.000000D+00  E= 3.890898D+00

 Vector  133  Occ=0.000000D+00  E= 3.983576D+00

 Vector  134  Occ=0.000000D+00  E= 4.046334D+00

 Vector  135  Occ=0.000000D+00  E= 4.144915D+00

 Vector  136  Occ=0.000000D+00  E= 4.193184D+00

 Vector  137  Occ=0.000000D+00  E= 4.246030D+00

 Vector  138  Occ=0.000000D+00  E= 4.287257D+00

 Vector  139  Occ=0.000000D+00  E= 4.337700D+00

 Vector  140  Occ=0.000000D+00  E= 4.455115D+00

 Vector  141  Occ=0.000000D+00  E= 4.555445D+00

 Vector  142  Occ=0.000000D+00  E= 4.572087D+00

 Vector  143  Occ=0.000000D+00  E= 4.737824D+00

 Vector  144  Occ=0.000000D+00  E= 4.771045D+00

 Vector  145  Occ=0.000000D+00  E= 5.181052D+00

 Vector  146  Occ=0.000000D+00  E= 5.346490D+00

 Vector  147  Occ=0.000000D+00  E= 5.576475D+00

 Vector  148  Occ=0.000000D+00  E= 5.602767D+00

 Vector  149  Occ=0.000000D+00  E= 5.667029D+00

 Vector  150  Occ=0.000000D+00  E= 5.762924D+00

 Vector  151  Occ=0.000000D+00  E= 5.908798D+00

 Vector  152  Occ=0.000000D+00  E= 6.464211D+00

 Vector  153  Occ=0.000000D+00  E= 6.506247D+00

 Vector  154  Occ=0.000000D+00  E= 6.675954D+00

 Vector  155  Occ=0.000000D+00  E= 6.841925D+00

 Vector  156  Occ=0.000000D+00  E= 7.054728D+00

 Vector  157  Occ=0.000000D+00  E= 2.193347D+01

 Vector  158  Occ=0.000000D+00  E= 2.197220D+01

 Vector  159  Occ=0.000000D+00  E= 2.207880D+01

 Vector  160  Occ=0.000000D+00  E= 4.341434D+01

     Multipole analysis of the density
     ---------------------------------

     L   x y z        total         alpha         beta         nuclear
     -   - - -        -----         -----         ----         -------
     0   0 0 0     -0.000000    -16.000000    -16.000000     32.000000

     1   1 0 0      0.687367     -6.226638     -6.226638     13.140642
     1   0 1 0      0.326213     -1.618370     -1.618370      3.562952
     1   0 0 1     -0.061854      5.315417      5.315417    -10.692688

     2   2 0 0    -20.034442    -54.364282    -54.364282     88.694123
     2   1 1 0     -1.111600     13.924766     13.924766    -28.961133
     2   1 0 1      0.131223     26.423286     26.423286    -52.715349
     2   0 2 0    -17.855253    -40.514493    -40.514493     63.173733
     2   0 1 1      0.261319    -15.346079    -15.346079     30.953478

 Total times  cpu:      624.7s     wall:      639.1s
