============================== echo of input deck ==============================
echo
start methyloxirane_blyp-def2-tzvp_488.9_46.inp
title "methyloxirane roa calculations at 488.9 nm, input generated in va  with delta_type=2"
charge 0

geometry units angstrom nocenter noautoz noautosym nucleus point;symmetry c1
 O -0.879130 -0.180299  0.205256
 C  0.574314 -0.157695  0.122765
 C -0.185514  1.088411  0.340088
 C  1.187010 -0.518348 -1.211140
 H  1.057571 -0.602922  0.996199
 H -0.228043  1.537874  1.335117
 H -0.325229  1.781868 -0.492445
 H  2.223331 -0.221029 -1.245167
 H  1.141958 -1.627085 -1.377218
 H  0.651481 -0.026108 -2.034333
end

basis spherical
* library def2-TZVP
end

 set prop:newaoresp 1
 set aor:roadata T
 set cphf:maxsub 100
 set cphf:acc 1.0d-10
 set cphf:maxiter 100

property
    response 1   0.093196
    bdtensor
    convergence 1e-7
    damping 0.0037
    giao
end

dft
 direct
 mult 1
 xc becke88 lyp
 iterations 250
 tolerances tight
 grid xfine
 convergence nolevelshifting
 convergence energy 1e-8
 convergence gradient 1e-7

end

task dft gradient
task dft property
================================================================================

 Output coordinates in angstroms (scale by  1.889725989 to convert to a.u.)

  No.       Tag          Charge          X              Y              Z
 ---- ---------------- ---------- -------------- -------------- --------------
    1 O                    8.0000    -0.87913000    -0.18029900     0.20525600
    2 C                    6.0000     0.57431400    -0.15769500     0.12276500
    3 C                    6.0000    -0.18551400     1.08841100     0.34008800
    4 C                    6.0000     1.18701000    -0.51834800    -1.21114000
    5 H                    1.0000     1.05757100    -0.60292200     0.99619900
    6 H                    1.0000    -0.22804300     1.53787400     1.33511700
    7 H                    1.0000    -0.32522900     1.78186800    -0.49244500
    8 H                    1.0000     2.22333100    -0.22102900    -1.24516700
    9 H                    1.0000     1.14195800    -1.62708500    -1.37721800
   10 H                    1.0000     0.65148100    -0.02610800    -2.03433300

         Total DFT energy =     -193.108765443245
         Total DFT energy =     -193.108765443282

                       DFT Final Molecular Orbital Analysis
                       ------------------------------------

 Vector    1  Occ=2.000000D+00  E=-1.877964D+01

 Vector   81  Occ=0.000000D+00  E= 1.867347D+00

 Vector   82  Occ=0.000000D+00  E= 1.918853D+00

 Vector   83  Occ=0.000000D+00  E= 1.990598D+00

 Vector   84  Occ=0.000000D+00  E= 1.995916D+00

 Vector   85  Occ=0.000000D+00  E= 2.089565D+00

 Vector   86  Occ=0.000000D+00  E= 2.097137D+00

 Vector   87  Occ=0.000000D+00  E= 2.166817D+00

 Vector   88  Occ=0.000000D+00  E= 2.200256D+00

 Vector   89  Occ=0.000000D+00  E= 2.228787D+00

 Vector   90  Occ=0.000000D+00  E= 2.242753D+00

 Vector   91  Occ=0.000000D+00  E= 2.264671D+00

 Vector   92  Occ=0.000000D+00  E= 2.283356D+00

 Vector   93  Occ=0.000000D+00  E= 2.351440D+00

 Vector   94  Occ=0.000000D+00  E= 2.387826D+00

 Vector   95  Occ=0.000000D+00  E= 2.449302D+00

 Vector   96  Occ=0.000000D+00  E= 2.475784D+00

 Vector   97  Occ=0.000000D+00  E= 2.484920D+00

 Vector   98  Occ=0.000000D+00  E= 2.525476D+00

 Vector   99  Occ=0.000000D+00  E= 2.531293D+00

 Vector  100  Occ=0.000000D+00  E= 2.559357D+00

 Vector  101  Occ=0.000000D+00  E= 2.598561D+00

 Vector  102  Occ=0.000000D+00  E= 2.648158D+00

 Vector  103  Occ=0.000000D+00  E= 2.673536D+00

 Vector  104  Occ=0.000000D+00  E= 2.719922D+00

 Vector  105  Occ=0.000000D+00  E= 2.740809D+00

 Vector  106  Occ=0.000000D+00  E= 2.800536D+00

 Vector  107  Occ=0.000000D+00  E= 2.833136D+00

 Vector  108  Occ=0.000000D+00  E= 2.859730D+00

 Vector  109  Occ=0.000000D+00  E= 2.901094D+00

 Vector  110  Occ=0.000000D+00  E= 2.960081D+00

 Vector  111  Occ=0.000000D+00  E= 2.967121D+00

 Vector  112  Occ=0.000000D+00  E= 2.987817D+00

 Vector  113  Occ=0.000000D+00  E= 3.007973D+00

 Vector  114  Occ=0.000000D+00  E= 3.031451D+00

 Vector  115  Occ=0.000000D+00  E= 3.070155D+00

 Vector  116  Occ=0.000000D+00  E= 3.145955D+00

 Vector  117  Occ=0.000000D+00  E= 3.166458D+00

 Vector  118  Occ=0.000000D+00  E= 3.188937D+00

 Vector  119  Occ=0.000000D+00  E= 3.275705D+00

 Vector  120  Occ=0.000000D+00  E= 3.295065D+00

 Vector  121  Occ=0.000000D+00  E= 3.316067D+00

 Vector  122  Occ=0.000000D+00  E= 3.355655D+00

 Vector  123  Occ=0.000000D+00  E= 3.373806D+00

 Vector  124  Occ=0.000000D+00  E= 3.432663D+00

 Vector  125  Occ=0.000000D+00  E= 3.457500D+00

 Vector  126  Occ=0.000000D+00  E= 3.566282D+00

 Vector  127  Occ=0.000000D+00  E= 3.572889D+00

 Vector  128  Occ=0.000000D+00  E= 3.630872D+00

 Vector  129  Occ=0.000000D+00  E= 3.766753D+00

 Vector  130  Occ=0.000000D+00  E= 3.785612D+00

 Vector  131  Occ=0.000000D+00  E= 3.883097D+00

 Vector  132  Occ=0.000000D+00  E= 3.896839D+00

 Vector  133  Occ=0.000000D+00  E= 3.991050D+00

 Vector  134  Occ=0.000000D+00  E= 4.048131D+00

 Vector  135  Occ=0.000000D+00  E= 4.134794D+00

 Vector  136  Occ=0.000000D+00  E= 4.196073D+00

 Vector  137  Occ=0.000000D+00  E= 4.255231D+00

 Vector  138  Occ=0.000000D+00  E= 4.296602D+00

 Vector  139  Occ=0.000000D+00  E= 4.348011D+00

 Vector  140  Occ=0.000000D+00  E= 4.470517D+00

 Vector  141  Occ=0.000000D+00  E= 4.554724D+00

 Vector  142  Occ=0.000000D+00  E= 4.574694D+00

 Vector  143  Occ=0.000000D+00  E= 4.738220D+00

 Vector  144  Occ=0.000000D+00  E= 4.770273D+00

 Vector  145  Occ=0.000000D+00  E= 5.182126D+00

 Vector  146  Occ=0.000000D+00  E= 5.346772D+00

 Vector  147  Occ=0.000000D+00  E= 5.577847D+00

 Vector  148  Occ=0.000000D+00  E= 5.603958D+00

 Vector  149  Occ=0.000000D+00  E= 5.667764D+00

 Vector  150  Occ=0.000000D+00  E= 5.763879D+00

 Vector  151  Occ=0.000000D+00  E= 5.909139D+00

 Vector  152  Occ=0.000000D+00  E= 6.464685D+00

 Vector  153  Occ=0.000000D+00  E= 6.507251D+00

 Vector  154  Occ=0.000000D+00  E= 6.676697D+00

 Vector  155  Occ=0.000000D+00  E= 6.842110D+00

 Vector  156  Occ=0.000000D+00  E= 7.055798D+00

 Vector  157  Occ=0.000000D+00  E= 2.194259D+01

 Vector  158  Occ=0.000000D+00  E= 2.197976D+01

 Vector  159  Occ=0.000000D+00  E= 2.210356D+01

 Vector  160  Occ=0.000000D+00  E= 4.341422D+01

     Multipole analysis of the density
     ---------------------------------

     L   x y z        total         alpha         beta         nuclear
     -   - - -        -----         -----         ----         -------
     0   0 0 0     -0.000000    -16.000000    -16.000000     32.000000

     1   1 0 0      0.695447     -6.212355     -6.212355     13.120158
     1   0 1 0      0.332749     -1.604690     -1.604690      3.542129
     1   0 0 1     -0.055022      5.325630      5.325630    -10.706282

     2   2 0 0    -20.002035    -54.229283    -54.229283     88.456532
     2   1 1 0     -1.099920     13.935863     13.935863    -28.971647
     2   1 0 1      0.145244     26.466584     26.466584    -52.787924
     2   0 2 0    -17.851063    -40.582612    -40.582612     63.314160
     2   0 1 1      0.227582    -15.455673    -15.455673     31.138929

 Total times  cpu:      688.1s     wall:      703.2s
