============================== echo of input deck ==============================
echo
start methyloxirane_blyp-def2-tzvp_488.9_06.inp
title "methyloxirane roa calculations at 488.9 nm, input generated in va  with delta_type=2"
charge 0

geometry units angstrom nocenter noautoz noautosym nucleus point;symmetry c1
 O -0.881185 -0.183411  0.206136
 C  0.572949 -0.155449  0.123706
 C -0.183036  1.090388  0.342445
 C  1.186707 -0.518736 -1.214452
 H  1.056600 -0.613631  0.993386
 H -0.245629  1.548958  1.332520
 H -0.306471  1.776268 -0.500485
 H  2.245201 -0.222794 -1.250750
 H  1.138605 -1.606672 -1.362173
 H  0.655735 -0.035806 -2.044153
end

basis spherical
* library def2-TZVP
end

 set prop:newaoresp 1
 set aor:roadata T
 set cphf:maxsub 100
 set cphf:acc 1.0d-10
 set cphf:maxiter 100

property
    response 1   0.093196
    bdtensor
    convergence 1e-7
    damping 0.0037
    giao
end

dft
 direct
 mult 1
 xc becke88 lyp
 iterations 250
 tolerances tight
 grid xfine
 convergence nolevelshifting
 convergence energy 1e-8
 convergence gradient 1e-7

end

task dft gradient
task dft property
================================================================================

 Output coordinates in angstroms (scale by  1.889725989 to convert to a.u.)

  No.       Tag          Charge          X              Y              Z
 ---- ---------------- ---------- -------------- -------------- --------------
    1 O                    8.0000    -0.88118500    -0.18341100     0.20613600
    2 C                    6.0000     0.57294900    -0.15544900     0.12370600
    3 C                    6.0000    -0.18303600     1.09038800     0.34244500
    4 C                    6.0000     1.18670700    -0.51873600    -1.21445200
    5 H                    1.0000     1.05660000    -0.61363100     0.99338600
    6 H                    1.0000    -0.24562900     1.54895800     1.33252000
    7 H                    1.0000    -0.30647100     1.77626800    -0.50048500
    8 H                    1.0000     2.24520100    -0.22279400    -1.25075000
    9 H                    1.0000     1.13860500    -1.60667200    -1.36217300
   10 H                    1.0000     0.65573500    -0.03580600    -2.04415300

         Total DFT energy =     -193.109205674876
         Total DFT energy =     -193.109205675319

                       DFT Final Molecular Orbital Analysis
                       ------------------------------------

 Vector    1  Occ=2.000000D+00  E=-1.877961D+01

 Vector   81  Occ=0.000000D+00  E= 1.865987D+00

 Vector   82  Occ=0.000000D+00  E= 1.914990D+00

 Vector   83  Occ=0.000000D+00  E= 1.990157D+00

 Vector   84  Occ=0.000000D+00  E= 1.994984D+00

 Vector   85  Occ=0.000000D+00  E= 2.090358D+00

 Vector   86  Occ=0.000000D+00  E= 2.096610D+00

 Vector   87  Occ=0.000000D+00  E= 2.163469D+00

 Vector   88  Occ=0.000000D+00  E= 2.199390D+00

 Vector   89  Occ=0.000000D+00  E= 2.226507D+00

 Vector   90  Occ=0.000000D+00  E= 2.243756D+00

 Vector   91  Occ=0.000000D+00  E= 2.265675D+00

 Vector   92  Occ=0.000000D+00  E= 2.281058D+00

 Vector   93  Occ=0.000000D+00  E= 2.351157D+00

 Vector   94  Occ=0.000000D+00  E= 2.388679D+00

 Vector   95  Occ=0.000000D+00  E= 2.451996D+00

 Vector   96  Occ=0.000000D+00  E= 2.475129D+00

 Vector   97  Occ=0.000000D+00  E= 2.483605D+00

 Vector   98  Occ=0.000000D+00  E= 2.521765D+00

 Vector   99  Occ=0.000000D+00  E= 2.532492D+00

 Vector  100  Occ=0.000000D+00  E= 2.552906D+00

 Vector  101  Occ=0.000000D+00  E= 2.592579D+00

 Vector  102  Occ=0.000000D+00  E= 2.649955D+00

 Vector  103  Occ=0.000000D+00  E= 2.667155D+00

 Vector  104  Occ=0.000000D+00  E= 2.716103D+00

 Vector  105  Occ=0.000000D+00  E= 2.738231D+00

 Vector  106  Occ=0.000000D+00  E= 2.808075D+00

 Vector  107  Occ=0.000000D+00  E= 2.831702D+00

 Vector  108  Occ=0.000000D+00  E= 2.862211D+00

 Vector  109  Occ=0.000000D+00  E= 2.898069D+00

 Vector  110  Occ=0.000000D+00  E= 2.955549D+00

 Vector  111  Occ=0.000000D+00  E= 2.966950D+00

 Vector  112  Occ=0.000000D+00  E= 2.988342D+00

 Vector  113  Occ=0.000000D+00  E= 3.006954D+00

 Vector  114  Occ=0.000000D+00  E= 3.030441D+00

 Vector  115  Occ=0.000000D+00  E= 3.071163D+00

 Vector  116  Occ=0.000000D+00  E= 3.146717D+00

 Vector  117  Occ=0.000000D+00  E= 3.166800D+00

 Vector  118  Occ=0.000000D+00  E= 3.190945D+00

 Vector  119  Occ=0.000000D+00  E= 3.273592D+00

 Vector  120  Occ=0.000000D+00  E= 3.292169D+00

 Vector  121  Occ=0.000000D+00  E= 3.314581D+00

 Vector  122  Occ=0.000000D+00  E= 3.347327D+00

 Vector  123  Occ=0.000000D+00  E= 3.369269D+00

 Vector  124  Occ=0.000000D+00  E= 3.433010D+00

 Vector  125  Occ=0.000000D+00  E= 3.454759D+00

 Vector  126  Occ=0.000000D+00  E= 3.559617D+00

 Vector  127  Occ=0.000000D+00  E= 3.570007D+00

 Vector  128  Occ=0.000000D+00  E= 3.639406D+00

 Vector  129  Occ=0.000000D+00  E= 3.760462D+00

 Vector  130  Occ=0.000000D+00  E= 3.783908D+00

 Vector  131  Occ=0.000000D+00  E= 3.878118D+00

 Vector  132  Occ=0.000000D+00  E= 3.899724D+00

 Vector  133  Occ=0.000000D+00  E= 3.982267D+00

 Vector  134  Occ=0.000000D+00  E= 4.050734D+00

 Vector  135  Occ=0.000000D+00  E= 4.142940D+00

 Vector  136  Occ=0.000000D+00  E= 4.194615D+00

 Vector  137  Occ=0.000000D+00  E= 4.263151D+00

 Vector  138  Occ=0.000000D+00  E= 4.283409D+00

 Vector  139  Occ=0.000000D+00  E= 4.343471D+00

 Vector  140  Occ=0.000000D+00  E= 4.471563D+00

 Vector  141  Occ=0.000000D+00  E= 4.549798D+00

 Vector  142  Occ=0.000000D+00  E= 4.573103D+00

 Vector  143  Occ=0.000000D+00  E= 4.734345D+00

 Vector  144  Occ=0.000000D+00  E= 4.770630D+00

 Vector  145  Occ=0.000000D+00  E= 5.179805D+00

 Vector  146  Occ=0.000000D+00  E= 5.342459D+00

 Vector  147  Occ=0.000000D+00  E= 5.569478D+00

 Vector  148  Occ=0.000000D+00  E= 5.597693D+00

 Vector  149  Occ=0.000000D+00  E= 5.663105D+00

 Vector  150  Occ=0.000000D+00  E= 5.756269D+00

 Vector  151  Occ=0.000000D+00  E= 5.904022D+00

 Vector  152  Occ=0.000000D+00  E= 6.460501D+00

 Vector  153  Occ=0.000000D+00  E= 6.502340D+00

 Vector  154  Occ=0.000000D+00  E= 6.674593D+00

 Vector  155  Occ=0.000000D+00  E= 6.841793D+00

 Vector  156  Occ=0.000000D+00  E= 7.055213D+00

 Vector  157  Occ=0.000000D+00  E= 2.193242D+01

 Vector  158  Occ=0.000000D+00  E= 2.198045D+01

 Vector  159  Occ=0.000000D+00  E= 2.209588D+01

 Vector  160  Occ=0.000000D+00  E= 4.341092D+01

     Multipole analysis of the density
     ---------------------------------

     L   x y z        total         alpha         beta         nuclear
     -   - - -        -----         -----         ----         -------
     0   0 0 0     -0.000000    -16.000000    -16.000000     32.000000

     1   1 0 0      0.694197     -6.223744     -6.223744     13.141686
     1   0 1 0      0.329107     -1.608248     -1.608248      3.545604
     1   0 0 1     -0.055615      5.331808      5.331808    -10.719231

     2   2 0 0    -20.042018    -54.427501    -54.427501     88.812985
     2   1 1 0     -1.111358     13.833405     13.833405    -28.778167
     2   1 0 1      0.127499     26.623636     26.623636    -53.119773
     2   0 2 0    -17.823285    -40.561195    -40.561195     63.299105
     2   0 1 1      0.261152    -15.418363    -15.418363     31.097878

 Total times  cpu:      450.1s     wall:      459.3s
