============================== echo of input deck ==============================
echo
start methyloxirane_blyp-def2-tzvp_488.9_26.inp
title "methyloxirane roa calculations at 488.9 nm, input generated in va  with delta_type=2"
charge 0

geometry units angstrom nocenter noautoz noautosym nucleus point;symmetry c1
 O -0.875400 -0.180658  0.198416
 C  0.577762 -0.150664  0.121518
 C -0.189671  1.090157  0.347759
 C  1.183435 -0.526256 -1.211381
 H  1.061531 -0.597716  0.997222
 H -0.235658  1.527462  1.348864
 H -0.333040  1.793673 -0.476951
 H  2.240575 -0.227011 -1.257985
 H  1.134813 -1.614378 -1.357580
 H  0.644648 -0.044088 -2.036496
end

basis spherical
* library def2-TZVP
end

 set prop:newaoresp 1
 set aor:roadata T
 set cphf:maxsub 100
 set cphf:acc 1.0d-10
 set cphf:maxiter 100

property
    response 1   0.093196
    bdtensor
    convergence 1e-7
    damping 0.0037
    giao
end

dft
 direct
 mult 1
 xc becke88 lyp
 iterations 250
 tolerances tight
 grid xfine
 convergence nolevelshifting
 convergence energy 1e-8
 convergence gradient 1e-7

end

task dft gradient
task dft property
================================================================================

 Output coordinates in angstroms (scale by  1.889725989 to convert to a.u.)

  No.       Tag          Charge          X              Y              Z
 ---- ---------------- ---------- -------------- -------------- --------------
    1 O                    8.0000    -0.87540000    -0.18065800     0.19841600
    2 C                    6.0000     0.57776200    -0.15066400     0.12151800
    3 C                    6.0000    -0.18967100     1.09015700     0.34775900
    4 C                    6.0000     1.18343500    -0.52625600    -1.21138100
    5 H                    1.0000     1.06153100    -0.59771600     0.99722200
    6 H                    1.0000    -0.23565800     1.52746200     1.34886400
    7 H                    1.0000    -0.33304000     1.79367300    -0.47695100
    8 H                    1.0000     2.24057500    -0.22701100    -1.25798500
    9 H                    1.0000     1.13481300    -1.61437800    -1.35758000
   10 H                    1.0000     0.64464800    -0.04408800    -2.03649600

         Total DFT energy =     -193.109274480368
         Total DFT energy =     -193.109274480321

                       DFT Final Molecular Orbital Analysis
                       ------------------------------------

 Vector    1  Occ=2.000000D+00  E=-1.877952D+01

 Vector   81  Occ=0.000000D+00  E= 1.866969D+00

 Vector   82  Occ=0.000000D+00  E= 1.919419D+00

 Vector   83  Occ=0.000000D+00  E= 1.988835D+00

 Vector   84  Occ=0.000000D+00  E= 1.994102D+00

 Vector   85  Occ=0.000000D+00  E= 2.090781D+00

 Vector   86  Occ=0.000000D+00  E= 2.096551D+00

 Vector   87  Occ=0.000000D+00  E= 2.165382D+00

 Vector   88  Occ=0.000000D+00  E= 2.202459D+00

 Vector   89  Occ=0.000000D+00  E= 2.230559D+00

 Vector   90  Occ=0.000000D+00  E= 2.244978D+00

 Vector   91  Occ=0.000000D+00  E= 2.266481D+00

 Vector   92  Occ=0.000000D+00  E= 2.282740D+00

 Vector   93  Occ=0.000000D+00  E= 2.349445D+00

 Vector   94  Occ=0.000000D+00  E= 2.388537D+00

 Vector   95  Occ=0.000000D+00  E= 2.450885D+00

 Vector   96  Occ=0.000000D+00  E= 2.472352D+00

 Vector   97  Occ=0.000000D+00  E= 2.483153D+00

 Vector   98  Occ=0.000000D+00  E= 2.526725D+00

 Vector   99  Occ=0.000000D+00  E= 2.533478D+00

 Vector  100  Occ=0.000000D+00  E= 2.557761D+00

 Vector  101  Occ=0.000000D+00  E= 2.598008D+00

 Vector  102  Occ=0.000000D+00  E= 2.652558D+00

 Vector  103  Occ=0.000000D+00  E= 2.668273D+00

 Vector  104  Occ=0.000000D+00  E= 2.715900D+00

 Vector  105  Occ=0.000000D+00  E= 2.742113D+00

 Vector  106  Occ=0.000000D+00  E= 2.811515D+00

 Vector  107  Occ=0.000000D+00  E= 2.830054D+00

 Vector  108  Occ=0.000000D+00  E= 2.860681D+00

 Vector  109  Occ=0.000000D+00  E= 2.899953D+00

 Vector  110  Occ=0.000000D+00  E= 2.960111D+00

 Vector  111  Occ=0.000000D+00  E= 2.968805D+00

 Vector  112  Occ=0.000000D+00  E= 2.989347D+00

 Vector  113  Occ=0.000000D+00  E= 3.007631D+00

 Vector  114  Occ=0.000000D+00  E= 3.033161D+00

 Vector  115  Occ=0.000000D+00  E= 3.066834D+00

 Vector  116  Occ=0.000000D+00  E= 3.145215D+00

 Vector  117  Occ=0.000000D+00  E= 3.170853D+00

 Vector  118  Occ=0.000000D+00  E= 3.187161D+00

 Vector  119  Occ=0.000000D+00  E= 3.276228D+00

 Vector  120  Occ=0.000000D+00  E= 3.295350D+00

 Vector  121  Occ=0.000000D+00  E= 3.317167D+00

 Vector  122  Occ=0.000000D+00  E= 3.351063D+00

 Vector  123  Occ=0.000000D+00  E= 3.375575D+00

 Vector  124  Occ=0.000000D+00  E= 3.430553D+00

 Vector  125  Occ=0.000000D+00  E= 3.455847D+00

 Vector  126  Occ=0.000000D+00  E= 3.567117D+00

 Vector  127  Occ=0.000000D+00  E= 3.569234D+00

 Vector  128  Occ=0.000000D+00  E= 3.632441D+00

 Vector  129  Occ=0.000000D+00  E= 3.760992D+00

 Vector  130  Occ=0.000000D+00  E= 3.780326D+00

 Vector  131  Occ=0.000000D+00  E= 3.885286D+00

 Vector  132  Occ=0.000000D+00  E= 3.896988D+00

 Vector  133  Occ=0.000000D+00  E= 3.985644D+00

 Vector  134  Occ=0.000000D+00  E= 4.049168D+00

 Vector  135  Occ=0.000000D+00  E= 4.145344D+00

 Vector  136  Occ=0.000000D+00  E= 4.199189D+00

 Vector  137  Occ=0.000000D+00  E= 4.261630D+00

 Vector  138  Occ=0.000000D+00  E= 4.286108D+00

 Vector  139  Occ=0.000000D+00  E= 4.338798D+00

 Vector  140  Occ=0.000000D+00  E= 4.468434D+00

 Vector  141  Occ=0.000000D+00  E= 4.558006D+00

 Vector  142  Occ=0.000000D+00  E= 4.577165D+00

 Vector  143  Occ=0.000000D+00  E= 4.737573D+00

 Vector  144  Occ=0.000000D+00  E= 4.776645D+00

 Vector  145  Occ=0.000000D+00  E= 5.182859D+00

 Vector  146  Occ=0.000000D+00  E= 5.347709D+00

 Vector  147  Occ=0.000000D+00  E= 5.577352D+00

 Vector  148  Occ=0.000000D+00  E= 5.604925D+00

 Vector  149  Occ=0.000000D+00  E= 5.666528D+00

 Vector  150  Occ=0.000000D+00  E= 5.763471D+00

 Vector  151  Occ=0.000000D+00  E= 5.910284D+00

 Vector  152  Occ=0.000000D+00  E= 6.465186D+00

 Vector  153  Occ=0.000000D+00  E= 6.508102D+00

 Vector  154  Occ=0.000000D+00  E= 6.675423D+00

 Vector  155  Occ=0.000000D+00  E= 6.842716D+00

 Vector  156  Occ=0.000000D+00  E= 7.056278D+00

 Vector  157  Occ=0.000000D+00  E= 2.193933D+01

 Vector  158  Occ=0.000000D+00  E= 2.198488D+01

 Vector  159  Occ=0.000000D+00  E= 2.210152D+01

 Vector  160  Occ=0.000000D+00  E= 4.341253D+01

     Multipole analysis of the density
     ---------------------------------

     L   x y z        total         alpha         beta         nuclear
     -   - - -        -----         -----         ----         -------
     0   0 0 0     -0.000000    -16.000000    -16.000000     32.000000

     1   1 0 0      0.684394     -6.214042     -6.214042     13.112478
     1   0 1 0      0.325399     -1.606179     -1.606179      3.537756
     1   0 0 1     -0.051421      5.311085      5.311085    -10.673592

     2   2 0 0    -20.020893    -54.236760    -54.236760     88.452628
     2   1 1 0     -1.123940     14.071109     14.071109    -29.266158
     2   1 0 1      0.138442     26.384529     26.384529    -52.630617
     2   0 2 0    -17.836808    -40.624069    -40.624069     63.411331
     2   0 1 1      0.259789    -15.723550    -15.723550     31.706888

 Total times  cpu:      422.3s     wall:      432.8s
