============================== echo of input deck ==============================
echo
start methyloxirane_blyp-def2-tzvp_488.9_13.inp
title "methyloxirane roa calculations at 488.9 nm, input generated in va  with delta_type=2"
charge 0

geometry units angstrom nocenter noautoz noautosym nucleus point;symmetry c1
 O -0.880768 -0.181062  0.204653
 C  0.576200 -0.161088  0.122530
 C -0.187653  1.091831  0.340355
 C  1.185683 -0.519792 -1.210349
 H  1.077110 -0.608409  0.988905
 H -0.221994  1.544153  1.335287
 H -0.323206  1.788332 -0.492016
 H  2.242673 -0.218346 -1.246049
 H  1.141700 -1.605793 -1.372658
 H  0.649604 -0.028374 -2.031538
end

basis spherical
* library def2-TZVP
end

 set prop:newaoresp 1
 set aor:roadata T
 set cphf:maxsub 100
 set cphf:acc 1.0d-10
 set cphf:maxiter 100

property
    response 1   0.093196
    bdtensor
    convergence 1e-7
    damping 0.0037
    giao
end

dft
 direct
 mult 1
 xc becke88 lyp
 iterations 250
 tolerances tight
 grid xfine
 convergence nolevelshifting
 convergence energy 1e-8
 convergence gradient 1e-7

end

task dft gradient
task dft property
================================================================================

 Output coordinates in angstroms (scale by  1.889725989 to convert to a.u.)

  No.       Tag          Charge          X              Y              Z
 ---- ---------------- ---------- -------------- -------------- --------------
    1 O                    8.0000    -0.88076800    -0.18106200     0.20465300
    2 C                    6.0000     0.57620000    -0.16108800     0.12253000
    3 C                    6.0000    -0.18765300     1.09183100     0.34035500
    4 C                    6.0000     1.18568300    -0.51979200    -1.21034900
    5 H                    1.0000     1.07711000    -0.60840900     0.98890500
    6 H                    1.0000    -0.22199400     1.54415300     1.33528700
    7 H                    1.0000    -0.32320600     1.78833200    -0.49201600
    8 H                    1.0000     2.24267300    -0.21834600    -1.24604900
    9 H                    1.0000     1.14170000    -1.60579300    -1.37265800
   10 H                    1.0000     0.64960400    -0.02837400    -2.03153800

         Total DFT energy =     -193.109206510193
         Total DFT energy =     -193.109206510115

                       DFT Final Molecular Orbital Analysis
                       ------------------------------------

 Vector    1  Occ=2.000000D+00  E=-1.878052D+01

 Vector   81  Occ=0.000000D+00  E= 1.867376D+00

 Vector   82  Occ=0.000000D+00  E= 1.918947D+00

 Vector   83  Occ=0.000000D+00  E= 1.990727D+00

 Vector   84  Occ=0.000000D+00  E= 1.993607D+00

 Vector   85  Occ=0.000000D+00  E= 2.087277D+00

 Vector   86  Occ=0.000000D+00  E= 2.096295D+00

 Vector   87  Occ=0.000000D+00  E= 2.165911D+00

 Vector   88  Occ=0.000000D+00  E= 2.198188D+00

 Vector   89  Occ=0.000000D+00  E= 2.229884D+00

 Vector   90  Occ=0.000000D+00  E= 2.241402D+00

 Vector   91  Occ=0.000000D+00  E= 2.267911D+00

 Vector   92  Occ=0.000000D+00  E= 2.283738D+00

 Vector   93  Occ=0.000000D+00  E= 2.350579D+00

 Vector   94  Occ=0.000000D+00  E= 2.382341D+00

 Vector   95  Occ=0.000000D+00  E= 2.444995D+00

 Vector   96  Occ=0.000000D+00  E= 2.471824D+00

 Vector   97  Occ=0.000000D+00  E= 2.484169D+00

 Vector   98  Occ=0.000000D+00  E= 2.519154D+00

 Vector   99  Occ=0.000000D+00  E= 2.532438D+00

 Vector  100  Occ=0.000000D+00  E= 2.562462D+00

 Vector  101  Occ=0.000000D+00  E= 2.597566D+00

 Vector  102  Occ=0.000000D+00  E= 2.646552D+00

 Vector  103  Occ=0.000000D+00  E= 2.667395D+00

 Vector  104  Occ=0.000000D+00  E= 2.711369D+00

 Vector  105  Occ=0.000000D+00  E= 2.736080D+00

 Vector  106  Occ=0.000000D+00  E= 2.806781D+00

 Vector  107  Occ=0.000000D+00  E= 2.825972D+00

 Vector  108  Occ=0.000000D+00  E= 2.860836D+00

 Vector  109  Occ=0.000000D+00  E= 2.895108D+00

 Vector  110  Occ=0.000000D+00  E= 2.960436D+00

 Vector  111  Occ=0.000000D+00  E= 2.967715D+00

 Vector  112  Occ=0.000000D+00  E= 2.985670D+00

 Vector  113  Occ=0.000000D+00  E= 3.007424D+00

 Vector  114  Occ=0.000000D+00  E= 3.036697D+00

 Vector  115  Occ=0.000000D+00  E= 3.068149D+00

 Vector  116  Occ=0.000000D+00  E= 3.146235D+00

 Vector  117  Occ=0.000000D+00  E= 3.167213D+00

 Vector  118  Occ=0.000000D+00  E= 3.186702D+00

 Vector  119  Occ=0.000000D+00  E= 3.279847D+00

 Vector  120  Occ=0.000000D+00  E= 3.290668D+00

 Vector  121  Occ=0.000000D+00  E= 3.315889D+00

 Vector  122  Occ=0.000000D+00  E= 3.351750D+00

 Vector  123  Occ=0.000000D+00  E= 3.370713D+00

 Vector  124  Occ=0.000000D+00  E= 3.425208D+00

 Vector  125  Occ=0.000000D+00  E= 3.458165D+00

 Vector  126  Occ=0.000000D+00  E= 3.560870D+00

 Vector  127  Occ=0.000000D+00  E= 3.571394D+00

 Vector  128  Occ=0.000000D+00  E= 3.635082D+00

 Vector  129  Occ=0.000000D+00  E= 3.765663D+00

 Vector  130  Occ=0.000000D+00  E= 3.784527D+00

 Vector  131  Occ=0.000000D+00  E= 3.880014D+00

 Vector  132  Occ=0.000000D+00  E= 3.895883D+00

 Vector  133  Occ=0.000000D+00  E= 3.982298D+00

 Vector  134  Occ=0.000000D+00  E= 4.047943D+00

 Vector  135  Occ=0.000000D+00  E= 4.144041D+00

 Vector  136  Occ=0.000000D+00  E= 4.197967D+00

 Vector  137  Occ=0.000000D+00  E= 4.252917D+00

 Vector  138  Occ=0.000000D+00  E= 4.289404D+00

 Vector  139  Occ=0.000000D+00  E= 4.330082D+00

 Vector  140  Occ=0.000000D+00  E= 4.469665D+00

 Vector  141  Occ=0.000000D+00  E= 4.552801D+00

 Vector  142  Occ=0.000000D+00  E= 4.577642D+00

 Vector  143  Occ=0.000000D+00  E= 4.738227D+00

 Vector  144  Occ=0.000000D+00  E= 4.766731D+00

 Vector  145  Occ=0.000000D+00  E= 5.179732D+00

 Vector  146  Occ=0.000000D+00  E= 5.342714D+00

 Vector  147  Occ=0.000000D+00  E= 5.571706D+00

 Vector  148  Occ=0.000000D+00  E= 5.600779D+00

 Vector  149  Occ=0.000000D+00  E= 5.661198D+00

 Vector  150  Occ=0.000000D+00  E= 5.756545D+00

 Vector  151  Occ=0.000000D+00  E= 5.904325D+00

 Vector  152  Occ=0.000000D+00  E= 6.464533D+00

 Vector  153  Occ=0.000000D+00  E= 6.502138D+00

 Vector  154  Occ=0.000000D+00  E= 6.672192D+00

 Vector  155  Occ=0.000000D+00  E= 6.840322D+00

 Vector  156  Occ=0.000000D+00  E= 7.056364D+00

 Vector  157  Occ=0.000000D+00  E= 2.193112D+01

 Vector  158  Occ=0.000000D+00  E= 2.197876D+01

 Vector  159  Occ=0.000000D+00  E= 2.209217D+01

 Vector  160  Occ=0.000000D+00  E= 4.341074D+01

     Multipole analysis of the density
     ---------------------------------

     L   x y z        total         alpha         beta         nuclear
     -   - - -        -----         -----         ----         -------
     0   0 0 0     -0.000000    -16.000000    -16.000000     32.000000

     1   1 0 0      0.694622     -6.233776     -6.233776     13.162174
     1   0 1 0      0.326659     -1.621302     -1.621302      3.569263
     1   0 0 1     -0.056946      5.324770      5.324770    -10.706486

     2   2 0 0    -20.013377    -54.490293    -54.490293     88.967209
     2   1 1 0     -1.119251     13.949338     13.949338    -29.017926
     2   1 0 1      0.169910     26.449659     26.449659    -52.729407
     2   0 2 0    -17.825187    -40.643979    -40.643979     63.462770
     2   0 1 1      0.250226    -15.415855    -15.415855     31.081935

 Total times  cpu:      619.9s     wall:      637.9s
