============================== echo of input deck ==============================
echo
start methyloxirane_blyp-def2-tzvp_488.9_11.inp
title "methyloxirane roa calculations at 488.9 nm, input generated in va  with delta_type=2"
charge 0

geometry units angstrom nocenter noautoz noautosym nucleus point;symmetry c1
 O -0.878558 -0.182053  0.206718
 C  0.575049 -0.154583  0.118687
 C -0.187979  1.089626  0.339663
 C  1.185856 -0.522817 -1.208761
 H  1.046569 -0.616988  0.992532
 H -0.224598  1.536660  1.336338
 H -0.305438  1.789619 -0.492889
 H  2.239519 -0.210132 -1.246647
 H  1.142960 -1.606557 -1.382800
 H  0.647317 -0.020483 -2.022296
end

basis spherical
* library def2-TZVP
end

 set prop:newaoresp 1
 set aor:roadata T
 set cphf:maxsub 100
 set cphf:acc 1.0d-10
 set cphf:maxiter 100

property
    response 1   0.093196
    bdtensor
    convergence 1e-7
    damping 0.0037
    giao
end

dft
 direct
 mult 1
 xc becke88 lyp
 iterations 250
 tolerances tight
 grid xfine
 convergence nolevelshifting
 convergence energy 1e-8
 convergence gradient 1e-7

end

task dft gradient
task dft property
================================================================================

 Output coordinates in angstroms (scale by  1.889725989 to convert to a.u.)

  No.       Tag          Charge          X              Y              Z
 ---- ---------------- ---------- -------------- -------------- --------------
    1 O                    8.0000    -0.87855800    -0.18205300     0.20671800
    2 C                    6.0000     0.57504900    -0.15458300     0.11868700
    3 C                    6.0000    -0.18797900     1.08962600     0.33966300
    4 C                    6.0000     1.18585600    -0.52281700    -1.20876100
    5 H                    1.0000     1.04656900    -0.61698800     0.99253200
    6 H                    1.0000    -0.22459800     1.53666000     1.33633800
    7 H                    1.0000    -0.30543800     1.78961900    -0.49288900
    8 H                    1.0000     2.23951900    -0.21013200    -1.24664700
    9 H                    1.0000     1.14296000    -1.60655700    -1.38280000
   10 H                    1.0000     0.64731700    -0.02048300    -2.02229600

         Total DFT energy =     -193.109165411398
         Total DFT energy =     -193.109165411687

                       DFT Final Molecular Orbital Analysis
                       ------------------------------------

 Vector    1  Occ=2.000000D+00  E=-1.877979D+01

 Vector   81  Occ=0.000000D+00  E= 1.868464D+00

 Vector   82  Occ=0.000000D+00  E= 1.921605D+00

 Vector   83  Occ=0.000000D+00  E= 1.991947D+00

 Vector   84  Occ=0.000000D+00  E= 1.993716D+00

 Vector   85  Occ=0.000000D+00  E= 2.087802D+00

 Vector   86  Occ=0.000000D+00  E= 2.098925D+00

 Vector   87  Occ=0.000000D+00  E= 2.166203D+00

 Vector   88  Occ=0.000000D+00  E= 2.202096D+00

 Vector   89  Occ=0.000000D+00  E= 2.226116D+00

 Vector   90  Occ=0.000000D+00  E= 2.245618D+00

 Vector   91  Occ=0.000000D+00  E= 2.266941D+00

 Vector   92  Occ=0.000000D+00  E= 2.284165D+00

 Vector   93  Occ=0.000000D+00  E= 2.351656D+00

 Vector   94  Occ=0.000000D+00  E= 2.392788D+00

 Vector   95  Occ=0.000000D+00  E= 2.451036D+00

 Vector   96  Occ=0.000000D+00  E= 2.473964D+00

 Vector   97  Occ=0.000000D+00  E= 2.481921D+00

 Vector   98  Occ=0.000000D+00  E= 2.523576D+00

 Vector   99  Occ=0.000000D+00  E= 2.530817D+00

 Vector  100  Occ=0.000000D+00  E= 2.559902D+00

 Vector  101  Occ=0.000000D+00  E= 2.596578D+00

 Vector  102  Occ=0.000000D+00  E= 2.649282D+00

 Vector  103  Occ=0.000000D+00  E= 2.667953D+00

 Vector  104  Occ=0.000000D+00  E= 2.718316D+00

 Vector  105  Occ=0.000000D+00  E= 2.741845D+00

 Vector  106  Occ=0.000000D+00  E= 2.812462D+00

 Vector  107  Occ=0.000000D+00  E= 2.828012D+00

 Vector  108  Occ=0.000000D+00  E= 2.860666D+00

 Vector  109  Occ=0.000000D+00  E= 2.901037D+00

 Vector  110  Occ=0.000000D+00  E= 2.958588D+00

 Vector  111  Occ=0.000000D+00  E= 2.970906D+00

 Vector  112  Occ=0.000000D+00  E= 2.986915D+00

 Vector  113  Occ=0.000000D+00  E= 3.006391D+00

 Vector  114  Occ=0.000000D+00  E= 3.033796D+00

 Vector  115  Occ=0.000000D+00  E= 3.072121D+00

 Vector  116  Occ=0.000000D+00  E= 3.143392D+00

 Vector  117  Occ=0.000000D+00  E= 3.169655D+00

 Vector  118  Occ=0.000000D+00  E= 3.190110D+00

 Vector  119  Occ=0.000000D+00  E= 3.280864D+00

 Vector  120  Occ=0.000000D+00  E= 3.290098D+00

 Vector  121  Occ=0.000000D+00  E= 3.319350D+00

 Vector  122  Occ=0.000000D+00  E= 3.352353D+00

 Vector  123  Occ=0.000000D+00  E= 3.373896D+00

 Vector  124  Occ=0.000000D+00  E= 3.430917D+00

 Vector  125  Occ=0.000000D+00  E= 3.461253D+00

 Vector  126  Occ=0.000000D+00  E= 3.565768D+00

 Vector  127  Occ=0.000000D+00  E= 3.573028D+00

 Vector  128  Occ=0.000000D+00  E= 3.635857D+00

 Vector  129  Occ=0.000000D+00  E= 3.769195D+00

 Vector  130  Occ=0.000000D+00  E= 3.787293D+00

 Vector  131  Occ=0.000000D+00  E= 3.884376D+00

 Vector  132  Occ=0.000000D+00  E= 3.894820D+00

 Vector  133  Occ=0.000000D+00  E= 3.987665D+00

 Vector  134  Occ=0.000000D+00  E= 4.049219D+00

 Vector  135  Occ=0.000000D+00  E= 4.148907D+00

 Vector  136  Occ=0.000000D+00  E= 4.191285D+00

 Vector  137  Occ=0.000000D+00  E= 4.258940D+00

 Vector  138  Occ=0.000000D+00  E= 4.290421D+00

 Vector  139  Occ=0.000000D+00  E= 4.338391D+00

 Vector  140  Occ=0.000000D+00  E= 4.479534D+00

 Vector  141  Occ=0.000000D+00  E= 4.559061D+00

 Vector  142  Occ=0.000000D+00  E= 4.574588D+00

 Vector  143  Occ=0.000000D+00  E= 4.737806D+00

 Vector  144  Occ=0.000000D+00  E= 4.772543D+00

 Vector  145  Occ=0.000000D+00  E= 5.181922D+00

 Vector  146  Occ=0.000000D+00  E= 5.346751D+00

 Vector  147  Occ=0.000000D+00  E= 5.576652D+00

 Vector  148  Occ=0.000000D+00  E= 5.603816D+00

 Vector  149  Occ=0.000000D+00  E= 5.667636D+00

 Vector  150  Occ=0.000000D+00  E= 5.763225D+00

 Vector  151  Occ=0.000000D+00  E= 5.908333D+00

 Vector  152  Occ=0.000000D+00  E= 6.464314D+00

 Vector  153  Occ=0.000000D+00  E= 6.505006D+00

 Vector  154  Occ=0.000000D+00  E= 6.675752D+00

 Vector  155  Occ=0.000000D+00  E= 6.841977D+00

 Vector  156  Occ=0.000000D+00  E= 7.055658D+00

 Vector  157  Occ=0.000000D+00  E= 2.193820D+01

 Vector  158  Occ=0.000000D+00  E= 2.198447D+01

 Vector  159  Occ=0.000000D+00  E= 2.210795D+01

 Vector  160  Occ=0.000000D+00  E= 4.341316D+01

     Multipole analysis of the density
     ---------------------------------

     L   x y z        total         alpha         beta         nuclear
     -   - - -        -----         -----         ----         -------
     0   0 0 0     -0.000000    -16.000000    -16.000000     32.000000

     1   1 0 0      0.693023     -6.225408     -6.225408     13.143840
     1   0 1 0      0.326511     -1.621639     -1.621639      3.569789
     1   0 0 1     -0.060748      5.321787      5.321787    -10.704323

     2   2 0 0    -20.046957    -54.283982    -54.283982     88.521007
     2   1 1 0     -1.090744     13.846431     13.846431    -28.783606
     2   1 0 1      0.120797     26.520701     26.520701    -52.920605
     2   0 2 0    -17.794522    -40.577228    -40.577228     63.359934
     2   0 1 1      0.256962    -15.379243    -15.379243     31.015447

 Total times  cpu:      621.7s     wall:      638.3s
