============================== echo of input deck ==============================
echo
start methyloxirane_blyp-def2-tzvp_488.9_03.inp
title "methyloxirane roa calculations at 488.9 nm, input generated in va  with delta_type=2"
charge 0

geometry units angstrom nocenter noautoz noautosym nucleus point;symmetry c1
 O -0.876112 -0.181788  0.200740
 C  0.577099 -0.158719  0.129069
 C -0.183852  1.087654  0.337439
 C  1.179394 -0.517497 -1.208802
 H  1.059037 -0.605770  1.005389
 H -0.237051  1.541121  1.330579
 H -0.314347  1.778366 -0.500246
 H  2.235363 -0.213952 -1.255079
 H  1.132268 -1.602307 -1.376540
 H  0.635637 -0.020159 -2.021648
end

basis spherical
* library def2-TZVP
end

 set prop:newaoresp 1
 set aor:roadata T
 set cphf:maxsub 100
 set cphf:acc 1.0d-10
 set cphf:maxiter 100

property
    response 1   0.093196
    bdtensor
    convergence 1e-7
    damping 0.0037
    giao
end

dft
 direct
 mult 1
 xc becke88 lyp
 iterations 250
 tolerances tight
 grid xfine
 convergence nolevelshifting
 convergence energy 1e-8
 convergence gradient 1e-7

end

task dft gradient
task dft property
================================================================================

 Output coordinates in angstroms (scale by  1.889725989 to convert to a.u.)

  No.       Tag          Charge          X              Y              Z
 ---- ---------------- ---------- -------------- -------------- --------------
    1 O                    8.0000    -0.87611200    -0.18178800     0.20074000
    2 C                    6.0000     0.57709900    -0.15871900     0.12906900
    3 C                    6.0000    -0.18385200     1.08765400     0.33743900
    4 C                    6.0000     1.17939400    -0.51749700    -1.20880200
    5 H                    1.0000     1.05903700    -0.60577000     1.00538900
    6 H                    1.0000    -0.23705100     1.54112100     1.33057900
    7 H                    1.0000    -0.31434700     1.77836600    -0.50024600
    8 H                    1.0000     2.23536300    -0.21395200    -1.25507900
    9 H                    1.0000     1.13226800    -1.60230700    -1.37654000
   10 H                    1.0000     0.63563700    -0.02015900    -2.02164800

         Total DFT energy =     -193.109284957323
         Total DFT energy =     -193.109284957421

                       DFT Final Molecular Orbital Analysis
                       ------------------------------------

 Vector    1  Occ=2.000000D+00  E=-1.877965D+01

 Vector   81  Occ=0.000000D+00  E= 1.868139D+00

 Vector   82  Occ=0.000000D+00  E= 1.923957D+00

 Vector   83  Occ=0.000000D+00  E= 1.990811D+00

 Vector   84  Occ=0.000000D+00  E= 1.993369D+00

 Vector   85  Occ=0.000000D+00  E= 2.090812D+00

 Vector   86  Occ=0.000000D+00  E= 2.096344D+00

 Vector   87  Occ=0.000000D+00  E= 2.169590D+00

 Vector   88  Occ=0.000000D+00  E= 2.200319D+00

 Vector   89  Occ=0.000000D+00  E= 2.226407D+00

 Vector   90  Occ=0.000000D+00  E= 2.244424D+00

 Vector   91  Occ=0.000000D+00  E= 2.268349D+00

 Vector   92  Occ=0.000000D+00  E= 2.283011D+00

 Vector   93  Occ=0.000000D+00  E= 2.350391D+00

 Vector   94  Occ=0.000000D+00  E= 2.387108D+00

 Vector   95  Occ=0.000000D+00  E= 2.451448D+00

 Vector   96  Occ=0.000000D+00  E= 2.473807D+00

 Vector   97  Occ=0.000000D+00  E= 2.484388D+00

 Vector   98  Occ=0.000000D+00  E= 2.524320D+00

 Vector   99  Occ=0.000000D+00  E= 2.532100D+00

 Vector  100  Occ=0.000000D+00  E= 2.560217D+00

 Vector  101  Occ=0.000000D+00  E= 2.597748D+00

 Vector  102  Occ=0.000000D+00  E= 2.648706D+00

 Vector  103  Occ=0.000000D+00  E= 2.668888D+00

 Vector  104  Occ=0.000000D+00  E= 2.714675D+00

 Vector  105  Occ=0.000000D+00  E= 2.739909D+00

 Vector  106  Occ=0.000000D+00  E= 2.805300D+00

 Vector  107  Occ=0.000000D+00  E= 2.834787D+00

 Vector  108  Occ=0.000000D+00  E= 2.861550D+00

 Vector  109  Occ=0.000000D+00  E= 2.899646D+00

 Vector  110  Occ=0.000000D+00  E= 2.962000D+00

 Vector  111  Occ=0.000000D+00  E= 2.964299D+00

 Vector  112  Occ=0.000000D+00  E= 2.987625D+00

 Vector  113  Occ=0.000000D+00  E= 3.007778D+00

 Vector  114  Occ=0.000000D+00  E= 3.033547D+00

 Vector  115  Occ=0.000000D+00  E= 3.068018D+00

 Vector  116  Occ=0.000000D+00  E= 3.149644D+00

 Vector  117  Occ=0.000000D+00  E= 3.172797D+00

 Vector  118  Occ=0.000000D+00  E= 3.193125D+00

 Vector  119  Occ=0.000000D+00  E= 3.276323D+00

 Vector  120  Occ=0.000000D+00  E= 3.292620D+00

 Vector  121  Occ=0.000000D+00  E= 3.317186D+00

 Vector  122  Occ=0.000000D+00  E= 3.352438D+00

 Vector  123  Occ=0.000000D+00  E= 3.371896D+00

 Vector  124  Occ=0.000000D+00  E= 3.433785D+00

 Vector  125  Occ=0.000000D+00  E= 3.457771D+00

 Vector  126  Occ=0.000000D+00  E= 3.568234D+00

 Vector  127  Occ=0.000000D+00  E= 3.574809D+00

 Vector  128  Occ=0.000000D+00  E= 3.639223D+00

 Vector  129  Occ=0.000000D+00  E= 3.768477D+00

 Vector  130  Occ=0.000000D+00  E= 3.787031D+00

 Vector  131  Occ=0.000000D+00  E= 3.884470D+00

 Vector  132  Occ=0.000000D+00  E= 3.900732D+00

 Vector  133  Occ=0.000000D+00  E= 3.988372D+00

 Vector  134  Occ=0.000000D+00  E= 4.048813D+00

 Vector  135  Occ=0.000000D+00  E= 4.146917D+00

 Vector  136  Occ=0.000000D+00  E= 4.194997D+00

 Vector  137  Occ=0.000000D+00  E= 4.257756D+00

 Vector  138  Occ=0.000000D+00  E= 4.288804D+00

 Vector  139  Occ=0.000000D+00  E= 4.337126D+00

 Vector  140  Occ=0.000000D+00  E= 4.471940D+00

 Vector  141  Occ=0.000000D+00  E= 4.562367D+00

 Vector  142  Occ=0.000000D+00  E= 4.573638D+00

 Vector  143  Occ=0.000000D+00  E= 4.738774D+00

 Vector  144  Occ=0.000000D+00  E= 4.766095D+00

 Vector  145  Occ=0.000000D+00  E= 5.182494D+00

 Vector  146  Occ=0.000000D+00  E= 5.347077D+00

 Vector  147  Occ=0.000000D+00  E= 5.577457D+00

 Vector  148  Occ=0.000000D+00  E= 5.603940D+00

 Vector  149  Occ=0.000000D+00  E= 5.666567D+00

 Vector  150  Occ=0.000000D+00  E= 5.763857D+00

 Vector  151  Occ=0.000000D+00  E= 5.909279D+00

 Vector  152  Occ=0.000000D+00  E= 6.464923D+00

 Vector  153  Occ=0.000000D+00  E= 6.507531D+00

 Vector  154  Occ=0.000000D+00  E= 6.678648D+00

 Vector  155  Occ=0.000000D+00  E= 6.842307D+00

 Vector  156  Occ=0.000000D+00  E= 7.056615D+00

 Vector  157  Occ=0.000000D+00  E= 2.194153D+01

 Vector  158  Occ=0.000000D+00  E= 2.198028D+01

 Vector  159  Occ=0.000000D+00  E= 2.210312D+01

 Vector  160  Occ=0.000000D+00  E= 4.341597D+01

     Multipole analysis of the density
     ---------------------------------

     L   x y z        total         alpha         beta         nuclear
     -   - - -        -----         -----         ----         -------
     0   0 0 0     -0.000000    -16.000000    -16.000000     32.000000

     1   1 0 0      0.686956     -6.211846     -6.211846     13.110649
     1   0 1 0      0.326310     -1.624169     -1.624169      3.574649
     1   0 0 1     -0.051522      5.327256      5.327256    -10.706033

     2   2 0 0    -20.033735    -54.024785    -54.024785     88.015835
     2   1 1 0     -1.108625     13.745022     13.745022    -28.598668
     2   1 0 1      0.155400     26.197950     26.197950    -52.240500
     2   0 2 0    -17.838467    -40.413267    -40.413267     62.988068
     2   0 1 1      0.238614    -15.249496    -15.249496     30.737606

 Total times  cpu:      686.9s     wall:      700.9s
