============================== echo of input deck ==============================
echo
start methyloxirane_blyp-def2-tzvp_488.9_08.inp
title "methyloxirane roa calculations at 488.9 nm, input generated in va  with delta_type=2"
charge 0

geometry units angstrom nocenter noautoz noautosym nucleus point;symmetry c1
 O -0.880372 -0.180717  0.205355
 C  0.575024 -0.156669  0.123996
 C -0.185078  1.088350  0.339856
 C  1.183325 -0.522840 -1.213211
 H  1.071830 -0.587536  1.000662
 H -0.239418  1.530781  1.337963
 H -0.309540  1.789579 -0.490216
 H  2.238000 -0.210161 -1.233653
 H  1.151977 -1.607541 -1.384316
 H  0.658163 -0.023909 -2.037099
end

basis spherical
* library def2-TZVP
end

 set prop:newaoresp 1
 set aor:roadata T
 set cphf:maxsub 100
 set cphf:acc 1.0d-10
 set cphf:maxiter 100

property
    response 1   0.093196
    bdtensor
    convergence 1e-7
    damping 0.0037
    giao
end

dft
 direct
 mult 1
 xc becke88 lyp
 iterations 250
 tolerances tight
 grid xfine
 convergence nolevelshifting
 convergence energy 1e-8
 convergence gradient 1e-7

end

task dft gradient
task dft property
================================================================================

 Output coordinates in angstroms (scale by  1.889725989 to convert to a.u.)

  No.       Tag          Charge          X              Y              Z
 ---- ---------------- ---------- -------------- -------------- --------------
    1 O                    8.0000    -0.88037200    -0.18071700     0.20535500
    2 C                    6.0000     0.57502400    -0.15666900     0.12399600
    3 C                    6.0000    -0.18507800     1.08835000     0.33985600
    4 C                    6.0000     1.18332500    -0.52284000    -1.21321100
    5 H                    1.0000     1.07183000    -0.58753600     1.00066200
    6 H                    1.0000    -0.23941800     1.53078100     1.33796300
    7 H                    1.0000    -0.30954000     1.78957900    -0.49021600
    8 H                    1.0000     2.23800000    -0.21016100    -1.23365300
    9 H                    1.0000     1.15197700    -1.60754100    -1.38431600
   10 H                    1.0000     0.65816300    -0.02390900    -2.03709900

         Total DFT energy =     -193.109203862485
         Total DFT energy =     -193.109203862783

                       DFT Final Molecular Orbital Analysis
                       ------------------------------------

 Vector    1  Occ=2.000000D+00  E=-1.877983D+01

 Vector   81  Occ=0.000000D+00  E= 1.868250D+00

 Vector   82  Occ=0.000000D+00  E= 1.921156D+00

 Vector   83  Occ=0.000000D+00  E= 1.990269D+00

 Vector   84  Occ=0.000000D+00  E= 1.995129D+00

 Vector   85  Occ=0.000000D+00  E= 2.088199D+00

 Vector   86  Occ=0.000000D+00  E= 2.097062D+00

 Vector   87  Occ=0.000000D+00  E= 2.164832D+00

 Vector   88  Occ=0.000000D+00  E= 2.194263D+00

 Vector   89  Occ=0.000000D+00  E= 2.229153D+00

 Vector   90  Occ=0.000000D+00  E= 2.242614D+00

 Vector   91  Occ=0.000000D+00  E= 2.265015D+00

 Vector   92  Occ=0.000000D+00  E= 2.283820D+00

 Vector   93  Occ=0.000000D+00  E= 2.350607D+00

 Vector   94  Occ=0.000000D+00  E= 2.388340D+00

 Vector   95  Occ=0.000000D+00  E= 2.450739D+00

 Vector   96  Occ=0.000000D+00  E= 2.474195D+00

 Vector   97  Occ=0.000000D+00  E= 2.482634D+00

 Vector   98  Occ=0.000000D+00  E= 2.523634D+00

 Vector   99  Occ=0.000000D+00  E= 2.533207D+00

 Vector  100  Occ=0.000000D+00  E= 2.560367D+00

 Vector  101  Occ=0.000000D+00  E= 2.595919D+00

 Vector  102  Occ=0.000000D+00  E= 2.650542D+00

 Vector  103  Occ=0.000000D+00  E= 2.666760D+00

 Vector  104  Occ=0.000000D+00  E= 2.716209D+00

 Vector  105  Occ=0.000000D+00  E= 2.740470D+00

 Vector  106  Occ=0.000000D+00  E= 2.804806D+00

 Vector  107  Occ=0.000000D+00  E= 2.830211D+00

 Vector  108  Occ=0.000000D+00  E= 2.858649D+00

 Vector  109  Occ=0.000000D+00  E= 2.899714D+00

 Vector  110  Occ=0.000000D+00  E= 2.959287D+00

 Vector  111  Occ=0.000000D+00  E= 2.965593D+00

 Vector  112  Occ=0.000000D+00  E= 2.987897D+00

 Vector  113  Occ=0.000000D+00  E= 3.007537D+00

 Vector  114  Occ=0.000000D+00  E= 3.037384D+00

 Vector  115  Occ=0.000000D+00  E= 3.065286D+00

 Vector  116  Occ=0.000000D+00  E= 3.143485D+00

 Vector  117  Occ=0.000000D+00  E= 3.166398D+00

 Vector  118  Occ=0.000000D+00  E= 3.189340D+00

 Vector  119  Occ=0.000000D+00  E= 3.279521D+00

 Vector  120  Occ=0.000000D+00  E= 3.293012D+00

 Vector  121  Occ=0.000000D+00  E= 3.315169D+00

 Vector  122  Occ=0.000000D+00  E= 3.356164D+00

 Vector  123  Occ=0.000000D+00  E= 3.374216D+00

 Vector  124  Occ=0.000000D+00  E= 3.435151D+00

 Vector  125  Occ=0.000000D+00  E= 3.457575D+00

 Vector  126  Occ=0.000000D+00  E= 3.564941D+00

 Vector  127  Occ=0.000000D+00  E= 3.572223D+00

 Vector  128  Occ=0.000000D+00  E= 3.630365D+00

 Vector  129  Occ=0.000000D+00  E= 3.765720D+00

 Vector  130  Occ=0.000000D+00  E= 3.783371D+00

 Vector  131  Occ=0.000000D+00  E= 3.876001D+00

 Vector  132  Occ=0.000000D+00  E= 3.897494D+00

 Vector  133  Occ=0.000000D+00  E= 3.988554D+00

 Vector  134  Occ=0.000000D+00  E= 4.049331D+00

 Vector  135  Occ=0.000000D+00  E= 4.141230D+00

 Vector  136  Occ=0.000000D+00  E= 4.197218D+00

 Vector  137  Occ=0.000000D+00  E= 4.259841D+00

 Vector  138  Occ=0.000000D+00  E= 4.293023D+00

 Vector  139  Occ=0.000000D+00  E= 4.336750D+00

 Vector  140  Occ=0.000000D+00  E= 4.461985D+00

 Vector  141  Occ=0.000000D+00  E= 4.559728D+00

 Vector  142  Occ=0.000000D+00  E= 4.569813D+00

 Vector  143  Occ=0.000000D+00  E= 4.737736D+00

 Vector  144  Occ=0.000000D+00  E= 4.772419D+00

 Vector  145  Occ=0.000000D+00  E= 5.180592D+00

 Vector  146  Occ=0.000000D+00  E= 5.344929D+00

 Vector  147  Occ=0.000000D+00  E= 5.575377D+00

 Vector  148  Occ=0.000000D+00  E= 5.601026D+00

 Vector  149  Occ=0.000000D+00  E= 5.662819D+00

 Vector  150  Occ=0.000000D+00  E= 5.761651D+00

 Vector  151  Occ=0.000000D+00  E= 5.906467D+00

 Vector  152  Occ=0.000000D+00  E= 6.463089D+00

 Vector  153  Occ=0.000000D+00  E= 6.503606D+00

 Vector  154  Occ=0.000000D+00  E= 6.674605D+00

 Vector  155  Occ=0.000000D+00  E= 6.841923D+00

 Vector  156  Occ=0.000000D+00  E= 7.055578D+00

 Vector  157  Occ=0.000000D+00  E= 2.193838D+01

 Vector  158  Occ=0.000000D+00  E= 2.198106D+01

 Vector  159  Occ=0.000000D+00  E= 2.209644D+01

 Vector  160  Occ=0.000000D+00  E= 4.341289D+01

     Multipole analysis of the density
     ---------------------------------

     L   x y z        total         alpha         beta         nuclear
     -   - - -        -----         -----         ----         -------
     0   0 0 0     -0.000000    -16.000000    -16.000000     32.000000

     1   1 0 0      0.695285     -6.235843     -6.235843     13.166972
     1   0 1 0      0.329453     -1.629117     -1.629117      3.587688
     1   0 0 1     -0.056082      5.319858      5.319858    -10.695798

     2   2 0 0    -20.033846    -54.409279    -54.409279     88.784712
     2   1 1 0     -1.105248     13.868349     13.868349    -28.841947
     2   1 0 1      0.151629     26.505356     26.505356    -52.859084
     2   0 2 0    -17.839100    -40.480177    -40.480177     63.121254
     2   0 1 1      0.264609    -15.451778    -15.451778     31.168166

 Total times  cpu:      420.9s     wall:      433.0s
