============================== echo of input deck ==============================
echo
start methyloxirane_blyp-def2-tzvp_488.9_30.inp
title "methyloxirane roa calculations at 488.9 nm, input generated in va  with delta_type=2"
charge 0

geometry units angstrom nocenter noautoz noautosym nucleus point;symmetry c1
 O -0.877038 -0.177178  0.204379
 C  0.575450 -0.159843  0.121470
 C -0.187998  1.086319  0.337787
 C  1.184133 -0.522079 -1.208381
 H  1.060607 -0.594099  1.002854
 H -0.210475  1.527192  1.338579
 H -0.344222  1.788600 -0.485823
 H  2.238072 -0.209411 -1.240719
 H  1.146338 -1.605590 -1.386366
 H  0.647857 -0.018721 -2.022504
end

basis spherical
* library def2-TZVP
end

 set prop:newaoresp 1
 set aor:roadata T
 set cphf:maxsub 100
 set cphf:acc 1.0d-10
 set cphf:maxiter 100

property
    response 1   0.093196
    bdtensor
    convergence 1e-7
    damping 0.0037
    giao
end

dft
 direct
 mult 1
 xc becke88 lyp
 iterations 250
 tolerances tight
 grid xfine
 convergence nolevelshifting
 convergence energy 1e-8
 convergence gradient 1e-7

end

task dft gradient
task dft property
================================================================================

 Output coordinates in angstroms (scale by  1.889725989 to convert to a.u.)

  No.       Tag          Charge          X              Y              Z
 ---- ---------------- ---------- -------------- -------------- --------------
    1 O                    8.0000    -0.87703800    -0.17717800     0.20437900
    2 C                    6.0000     0.57545000    -0.15984300     0.12147000
    3 C                    6.0000    -0.18799800     1.08631900     0.33778700
    4 C                    6.0000     1.18413300    -0.52207900    -1.20838100
    5 H                    1.0000     1.06060700    -0.59409900     1.00285400
    6 H                    1.0000    -0.21047500     1.52719200     1.33857900
    7 H                    1.0000    -0.34422200     1.78860000    -0.48582300
    8 H                    1.0000     2.23807200    -0.20941100    -1.24071900
    9 H                    1.0000     1.14633800    -1.60559000    -1.38636600
   10 H                    1.0000     0.64785700    -0.01872100    -2.02250400

         Total DFT energy =     -193.109205045990
         Total DFT energy =     -193.109205046063

                       DFT Final Molecular Orbital Analysis
                       ------------------------------------

 Vector    1  Occ=2.000000D+00  E=-1.877985D+01

 Vector   81  Occ=0.000000D+00  E= 1.868675D+00

 Vector   82  Occ=0.000000D+00  E= 1.926440D+00

 Vector   83  Occ=0.000000D+00  E= 1.992155D+00

 Vector   84  Occ=0.000000D+00  E= 1.993932D+00

 Vector   85  Occ=0.000000D+00  E= 2.089037D+00

 Vector   86  Occ=0.000000D+00  E= 2.097517D+00

 Vector   87  Occ=0.000000D+00  E= 2.168436D+00

 Vector   88  Occ=0.000000D+00  E= 2.200253D+00

 Vector   89  Occ=0.000000D+00  E= 2.231832D+00

 Vector   90  Occ=0.000000D+00  E= 2.243678D+00

 Vector   91  Occ=0.000000D+00  E= 2.267439D+00

 Vector   92  Occ=0.000000D+00  E= 2.285821D+00

 Vector   93  Occ=0.000000D+00  E= 2.349975D+00

 Vector   94  Occ=0.000000D+00  E= 2.385768D+00

 Vector   95  Occ=0.000000D+00  E= 2.449157D+00

 Vector   96  Occ=0.000000D+00  E= 2.471953D+00

 Vector   97  Occ=0.000000D+00  E= 2.483433D+00

 Vector   98  Occ=0.000000D+00  E= 2.528354D+00

 Vector   99  Occ=0.000000D+00  E= 2.532558D+00

 Vector  100  Occ=0.000000D+00  E= 2.566441D+00

 Vector  101  Occ=0.000000D+00  E= 2.604828D+00

 Vector  102  Occ=0.000000D+00  E= 2.648931D+00

 Vector  103  Occ=0.000000D+00  E= 2.669593D+00

 Vector  104  Occ=0.000000D+00  E= 2.715821D+00

 Vector  105  Occ=0.000000D+00  E= 2.740780D+00

 Vector  106  Occ=0.000000D+00  E= 2.805724D+00

 Vector  107  Occ=0.000000D+00  E= 2.831462D+00

 Vector  108  Occ=0.000000D+00  E= 2.861644D+00

 Vector  109  Occ=0.000000D+00  E= 2.899406D+00

 Vector  110  Occ=0.000000D+00  E= 2.964000D+00

 Vector  111  Occ=0.000000D+00  E= 2.966101D+00

 Vector  112  Occ=0.000000D+00  E= 2.989784D+00

 Vector  113  Occ=0.000000D+00  E= 3.008217D+00

 Vector  114  Occ=0.000000D+00  E= 3.038478D+00

 Vector  115  Occ=0.000000D+00  E= 3.066936D+00

 Vector  116  Occ=0.000000D+00  E= 3.145028D+00

 Vector  117  Occ=0.000000D+00  E= 3.168128D+00

 Vector  118  Occ=0.000000D+00  E= 3.189448D+00

 Vector  119  Occ=0.000000D+00  E= 3.281866D+00

 Vector  120  Occ=0.000000D+00  E= 3.293487D+00

 Vector  121  Occ=0.000000D+00  E= 3.319282D+00

 Vector  122  Occ=0.000000D+00  E= 3.359982D+00

 Vector  123  Occ=0.000000D+00  E= 3.377563D+00

 Vector  124  Occ=0.000000D+00  E= 3.427973D+00

 Vector  125  Occ=0.000000D+00  E= 3.458202D+00

 Vector  126  Occ=0.000000D+00  E= 3.567952D+00

 Vector  127  Occ=0.000000D+00  E= 3.574958D+00

 Vector  128  Occ=0.000000D+00  E= 3.633035D+00

 Vector  129  Occ=0.000000D+00  E= 3.771042D+00

 Vector  130  Occ=0.000000D+00  E= 3.787324D+00

 Vector  131  Occ=0.000000D+00  E= 3.883600D+00

 Vector  132  Occ=0.000000D+00  E= 3.896006D+00

 Vector  133  Occ=0.000000D+00  E= 3.992473D+00

 Vector  134  Occ=0.000000D+00  E= 4.046532D+00

 Vector  135  Occ=0.000000D+00  E= 4.147030D+00

 Vector  136  Occ=0.000000D+00  E= 4.197676D+00

 Vector  137  Occ=0.000000D+00  E= 4.257832D+00

 Vector  138  Occ=0.000000D+00  E= 4.292671D+00

 Vector  139  Occ=0.000000D+00  E= 4.333018D+00

 Vector  140  Occ=0.000000D+00  E= 4.468914D+00

 Vector  141  Occ=0.000000D+00  E= 4.572022D+00

 Vector  142  Occ=0.000000D+00  E= 4.572138D+00

 Vector  143  Occ=0.000000D+00  E= 4.742098D+00

 Vector  144  Occ=0.000000D+00  E= 4.770707D+00

 Vector  145  Occ=0.000000D+00  E= 5.184192D+00

 Vector  146  Occ=0.000000D+00  E= 5.350898D+00

 Vector  147  Occ=0.000000D+00  E= 5.584832D+00

 Vector  148  Occ=0.000000D+00  E= 5.611119D+00

 Vector  149  Occ=0.000000D+00  E= 5.671251D+00

 Vector  150  Occ=0.000000D+00  E= 5.770814D+00

 Vector  151  Occ=0.000000D+00  E= 5.914334D+00

 Vector  152  Occ=0.000000D+00  E= 6.468819D+00

 Vector  153  Occ=0.000000D+00  E= 6.511962D+00

 Vector  154  Occ=0.000000D+00  E= 6.678301D+00

 Vector  155  Occ=0.000000D+00  E= 6.842510D+00

 Vector  156  Occ=0.000000D+00  E= 7.056013D+00

 Vector  157  Occ=0.000000D+00  E= 2.194833D+01

 Vector  158  Occ=0.000000D+00  E= 2.198295D+01

 Vector  159  Occ=0.000000D+00  E= 2.210654D+01

 Vector  160  Occ=0.000000D+00  E= 4.341739D+01

     Multipole analysis of the density
     ---------------------------------

     L   x y z        total         alpha         beta         nuclear
     -   - - -        -----         -----         ----         -------
     0   0 0 0     -0.000000    -16.000000    -16.000000     32.000000

     1   1 0 0      0.686384     -6.224912     -6.224912     13.136209
     1   0 1 0      0.322132     -1.631272     -1.631272      3.584676
     1   0 0 1     -0.058868      5.312529      5.312529    -10.683927

     2   2 0 0    -20.010100    -54.279031    -54.279031     88.547961
     2   1 1 0     -1.111776     13.963964     13.963964    -29.039705
     2   1 0 1      0.176489     26.350095     26.350095    -52.523702
     2   0 2 0    -17.853166    -40.399890    -40.399890     62.946613
     2   0 1 1      0.239130    -15.385726    -15.385726     31.010582

 Total times  cpu:      613.1s     wall:      627.0s
