============================== echo of input deck ==============================
echo
start methyloxirane_blyp-def2-tzvp_488.9_14.inp
title "methyloxirane roa calculations at 488.9 nm, input generated in va  with delta_type=2"
charge 0

geometry units angstrom nocenter noautoz noautosym nucleus point;symmetry c1
 O -0.879495 -0.180817  0.205426
 C  0.576413 -0.159763  0.121257
 C -0.185993  1.089188  0.340534
 C  1.186519 -0.520358 -1.215631
 H  1.049459 -0.597575  1.007264
 H -0.228289  1.543956  1.334050
 H -0.323776  1.787066 -0.490339
 H  2.242173 -0.213028 -1.224799
 H  1.135629 -1.608650 -1.356823
 H  0.638225 -0.021646 -2.023792
end

basis spherical
* library def2-TZVP
end

 set prop:newaoresp 1
 set aor:roadata T
 set cphf:maxsub 100
 set cphf:acc 1.0d-10
 set cphf:maxiter 100

property
    response 1   0.093196
    bdtensor
    convergence 1e-7
    damping 0.0037
    giao
end

dft
 direct
 mult 1
 xc becke88 lyp
 iterations 250
 tolerances tight
 grid xfine
 convergence nolevelshifting
 convergence energy 1e-8
 convergence gradient 1e-7

end

task dft gradient
task dft property
================================================================================

 Output coordinates in angstroms (scale by  1.889725989 to convert to a.u.)

  No.       Tag          Charge          X              Y              Z
 ---- ---------------- ---------- -------------- -------------- --------------
    1 O                    8.0000    -0.87949500    -0.18081700     0.20542600
    2 C                    6.0000     0.57641300    -0.15976300     0.12125700
    3 C                    6.0000    -0.18599300     1.08918800     0.34053400
    4 C                    6.0000     1.18651900    -0.52035800    -1.21563100
    5 H                    1.0000     1.04945900    -0.59757500     1.00726400
    6 H                    1.0000    -0.22828900     1.54395600     1.33405000
    7 H                    1.0000    -0.32377600     1.78706600    -0.49033900
    8 H                    1.0000     2.24217300    -0.21302800    -1.22479900
    9 H                    1.0000     1.13562900    -1.60865000    -1.35682300
   10 H                    1.0000     0.63822500    -0.02164600    -2.02379200

         Total DFT energy =     -193.109091894540
         Total DFT energy =     -193.109091895029

                       DFT Final Molecular Orbital Analysis
                       ------------------------------------

 Vector    1  Occ=2.000000D+00  E=-1.877938D+01

 Vector   81  Occ=0.000000D+00  E= 1.866509D+00

 Vector   82  Occ=0.000000D+00  E= 1.918407D+00

 Vector   83  Occ=0.000000D+00  E= 1.991845D+00

 Vector   84  Occ=0.000000D+00  E= 1.993544D+00

 Vector   85  Occ=0.000000D+00  E= 2.088435D+00

 Vector   86  Occ=0.000000D+00  E= 2.098052D+00

 Vector   87  Occ=0.000000D+00  E= 2.166708D+00

 Vector   88  Occ=0.000000D+00  E= 2.190917D+00

 Vector   89  Occ=0.000000D+00  E= 2.230419D+00

 Vector   90  Occ=0.000000D+00  E= 2.238659D+00

 Vector   91  Occ=0.000000D+00  E= 2.255343D+00

 Vector   92  Occ=0.000000D+00  E= 2.285351D+00

 Vector   93  Occ=0.000000D+00  E= 2.349924D+00

 Vector   94  Occ=0.000000D+00  E= 2.389995D+00

 Vector   95  Occ=0.000000D+00  E= 2.447732D+00

 Vector   96  Occ=0.000000D+00  E= 2.468473D+00

 Vector   97  Occ=0.000000D+00  E= 2.480737D+00

 Vector   98  Occ=0.000000D+00  E= 2.526590D+00

 Vector   99  Occ=0.000000D+00  E= 2.529165D+00

 Vector  100  Occ=0.000000D+00  E= 2.558324D+00

 Vector  101  Occ=0.000000D+00  E= 2.600614D+00

 Vector  102  Occ=0.000000D+00  E= 2.654472D+00

 Vector  103  Occ=0.000000D+00  E= 2.666961D+00

 Vector  104  Occ=0.000000D+00  E= 2.711911D+00

 Vector  105  Occ=0.000000D+00  E= 2.739777D+00

 Vector  106  Occ=0.000000D+00  E= 2.805251D+00

 Vector  107  Occ=0.000000D+00  E= 2.829106D+00

 Vector  108  Occ=0.000000D+00  E= 2.864548D+00

 Vector  109  Occ=0.000000D+00  E= 2.901452D+00

 Vector  110  Occ=0.000000D+00  E= 2.960824D+00

 Vector  111  Occ=0.000000D+00  E= 2.966088D+00

 Vector  112  Occ=0.000000D+00  E= 2.992447D+00

 Vector  113  Occ=0.000000D+00  E= 3.009910D+00

 Vector  114  Occ=0.000000D+00  E= 3.035829D+00

 Vector  115  Occ=0.000000D+00  E= 3.071370D+00

 Vector  116  Occ=0.000000D+00  E= 3.145766D+00

 Vector  117  Occ=0.000000D+00  E= 3.165064D+00

 Vector  118  Occ=0.000000D+00  E= 3.193427D+00

 Vector  119  Occ=0.000000D+00  E= 3.275515D+00

 Vector  120  Occ=0.000000D+00  E= 3.301744D+00

 Vector  121  Occ=0.000000D+00  E= 3.321552D+00

 Vector  122  Occ=0.000000D+00  E= 3.355177D+00

 Vector  123  Occ=0.000000D+00  E= 3.372544D+00

 Vector  124  Occ=0.000000D+00  E= 3.430335D+00

 Vector  125  Occ=0.000000D+00  E= 3.448414D+00

 Vector  126  Occ=0.000000D+00  E= 3.567252D+00

 Vector  127  Occ=0.000000D+00  E= 3.569717D+00

 Vector  128  Occ=0.000000D+00  E= 3.635089D+00

 Vector  129  Occ=0.000000D+00  E= 3.760680D+00

 Vector  130  Occ=0.000000D+00  E= 3.783957D+00

 Vector  131  Occ=0.000000D+00  E= 3.869903D+00

 Vector  132  Occ=0.000000D+00  E= 3.897797D+00

 Vector  133  Occ=0.000000D+00  E= 3.987379D+00

 Vector  134  Occ=0.000000D+00  E= 4.050151D+00

 Vector  135  Occ=0.000000D+00  E= 4.138593D+00

 Vector  136  Occ=0.000000D+00  E= 4.189463D+00

 Vector  137  Occ=0.000000D+00  E= 4.264701D+00

 Vector  138  Occ=0.000000D+00  E= 4.282615D+00

 Vector  139  Occ=0.000000D+00  E= 4.343459D+00

 Vector  140  Occ=0.000000D+00  E= 4.467395D+00

 Vector  141  Occ=0.000000D+00  E= 4.558370D+00

 Vector  142  Occ=0.000000D+00  E= 4.572872D+00

 Vector  143  Occ=0.000000D+00  E= 4.737507D+00

 Vector  144  Occ=0.000000D+00  E= 4.770281D+00

 Vector  145  Occ=0.000000D+00  E= 5.181274D+00

 Vector  146  Occ=0.000000D+00  E= 5.346039D+00

 Vector  147  Occ=0.000000D+00  E= 5.575721D+00

 Vector  148  Occ=0.000000D+00  E= 5.601840D+00

 Vector  149  Occ=0.000000D+00  E= 5.665343D+00

 Vector  150  Occ=0.000000D+00  E= 5.760324D+00

 Vector  151  Occ=0.000000D+00  E= 5.906074D+00

 Vector  152  Occ=0.000000D+00  E= 6.464581D+00

 Vector  153  Occ=0.000000D+00  E= 6.506151D+00

 Vector  154  Occ=0.000000D+00  E= 6.674744D+00

 Vector  155  Occ=0.000000D+00  E= 6.841662D+00

 Vector  156  Occ=0.000000D+00  E= 7.056323D+00

 Vector  157  Occ=0.000000D+00  E= 2.193524D+01

 Vector  158  Occ=0.000000D+00  E= 2.197640D+01

 Vector  159  Occ=0.000000D+00  E= 2.209120D+01

 Vector  160  Occ=0.000000D+00  E= 4.341118D+01

     Multipole analysis of the density
     ---------------------------------

     L   x y z        total         alpha         beta         nuclear
     -   - - -        -----         -----         ----         -------
     0   0 0 0     -0.000000    -16.000000    -16.000000     32.000000

     1   1 0 0      0.693998     -6.209495     -6.209495     13.112988
     1   0 1 0      0.323483     -1.631598     -1.631598      3.586679
     1   0 0 1     -0.054976      5.295937      5.295937    -10.646850

     2   2 0 0    -20.031823    -54.330611    -54.330611     88.629398
     2   1 1 0     -1.100259     13.871238     13.871238    -28.842735
     2   1 0 1      0.192747     26.393052     26.393052    -52.593356
     2   0 2 0    -17.829802    -40.564220    -40.564220     63.298638
     2   0 1 1      0.233788    -15.374972    -15.374972     30.983733

 Total times  cpu:      691.4s     wall:      709.5s
