============================== echo of input deck ==============================
echo
start methyloxirane_blyp-def2-tzvp_488.9_16.inp
title "methyloxirane roa calculations at 488.9 nm, input generated in va  with delta_type=2"
charge 0

geometry units angstrom nocenter noautoz noautosym nucleus point;symmetry c1
 O -0.879143 -0.180369  0.205251
 C  0.574334 -0.158843  0.122353
 C -0.185624  1.088248  0.340113
 C  1.184900 -0.521885 -1.211343
 H  1.058423 -0.601934  0.999698
 H -0.228162  1.541916  1.333960
 H -0.325213  1.785760 -0.490572
 H  2.236622 -0.202378 -1.258473
 H  1.138250 -1.608748 -1.360716
 H  0.667550 -0.013188 -2.034648
end

basis spherical
* library def2-TZVP
end

 set prop:newaoresp 1
 set aor:roadata T
 set cphf:maxsub 100
 set cphf:acc 1.0d-10
 set cphf:maxiter 100

property
    response 1   0.093196
    bdtensor
    convergence 1e-7
    damping 0.0037
    giao
end

dft
 direct
 mult 1
 xc becke88 lyp
 iterations 250
 tolerances tight
 grid xfine
 convergence nolevelshifting
 convergence energy 1e-8
 convergence gradient 1e-7

end

task dft gradient
task dft property
================================================================================

 Output coordinates in angstroms (scale by  1.889725989 to convert to a.u.)

  No.       Tag          Charge          X              Y              Z
 ---- ---------------- ---------- -------------- -------------- --------------
    1 O                    8.0000    -0.87914300    -0.18036900     0.20525100
    2 C                    6.0000     0.57433400    -0.15884300     0.12235300
    3 C                    6.0000    -0.18562400     1.08824800     0.34011300
    4 C                    6.0000     1.18490000    -0.52188500    -1.21134300
    5 H                    1.0000     1.05842300    -0.60193400     0.99969800
    6 H                    1.0000    -0.22816200     1.54191600     1.33396000
    7 H                    1.0000    -0.32521300     1.78576000    -0.49057200
    8 H                    1.0000     2.23662200    -0.20237800    -1.25847300
    9 H                    1.0000     1.13825000    -1.60874800    -1.36071600
   10 H                    1.0000     0.66755000    -0.01318800    -2.03464800

         Total DFT energy =     -193.109156444471
         Total DFT energy =     -193.109156444808

                       DFT Final Molecular Orbital Analysis
                       ------------------------------------

 Vector    1  Occ=2.000000D+00  E=-1.877985D+01

 Vector   81  Occ=0.000000D+00  E= 1.868937D+00

 Vector   82  Occ=0.000000D+00  E= 1.918205D+00

 Vector   83  Occ=0.000000D+00  E= 1.990458D+00

 Vector   84  Occ=0.000000D+00  E= 1.995262D+00

 Vector   85  Occ=0.000000D+00  E= 2.087272D+00

 Vector   86  Occ=0.000000D+00  E= 2.096861D+00

 Vector   87  Occ=0.000000D+00  E= 2.165252D+00

 Vector   88  Occ=0.000000D+00  E= 2.200130D+00

 Vector   89  Occ=0.000000D+00  E= 2.228771D+00

 Vector   90  Occ=0.000000D+00  E= 2.248409D+00

 Vector   91  Occ=0.000000D+00  E= 2.256046D+00

 Vector   92  Occ=0.000000D+00  E= 2.281710D+00

 Vector   93  Occ=0.000000D+00  E= 2.349891D+00

 Vector   94  Occ=0.000000D+00  E= 2.392657D+00

 Vector   95  Occ=0.000000D+00  E= 2.449679D+00

 Vector   96  Occ=0.000000D+00  E= 2.469659D+00

 Vector   97  Occ=0.000000D+00  E= 2.485720D+00

 Vector   98  Occ=0.000000D+00  E= 2.526090D+00

 Vector   99  Occ=0.000000D+00  E= 2.533884D+00

 Vector  100  Occ=0.000000D+00  E= 2.558353D+00

 Vector  101  Occ=0.000000D+00  E= 2.599443D+00

 Vector  102  Occ=0.000000D+00  E= 2.649935D+00

 Vector  103  Occ=0.000000D+00  E= 2.666953D+00

 Vector  104  Occ=0.000000D+00  E= 2.715330D+00

 Vector  105  Occ=0.000000D+00  E= 2.741027D+00

 Vector  106  Occ=0.000000D+00  E= 2.806651D+00

 Vector  107  Occ=0.000000D+00  E= 2.830291D+00

 Vector  108  Occ=0.000000D+00  E= 2.864933D+00

 Vector  109  Occ=0.000000D+00  E= 2.894771D+00

 Vector  110  Occ=0.000000D+00  E= 2.961372D+00

 Vector  111  Occ=0.000000D+00  E= 2.967081D+00

 Vector  112  Occ=0.000000D+00  E= 2.994085D+00

 Vector  113  Occ=0.000000D+00  E= 3.006013D+00

 Vector  114  Occ=0.000000D+00  E= 3.028856D+00

 Vector  115  Occ=0.000000D+00  E= 3.068391D+00

 Vector  116  Occ=0.000000D+00  E= 3.149091D+00

 Vector  117  Occ=0.000000D+00  E= 3.165898D+00

 Vector  118  Occ=0.000000D+00  E= 3.189765D+00

 Vector  119  Occ=0.000000D+00  E= 3.279250D+00

 Vector  120  Occ=0.000000D+00  E= 3.290417D+00

 Vector  121  Occ=0.000000D+00  E= 3.316015D+00

 Vector  122  Occ=0.000000D+00  E= 3.355245D+00

 Vector  123  Occ=0.000000D+00  E= 3.370089D+00

 Vector  124  Occ=0.000000D+00  E= 3.431781D+00

 Vector  125  Occ=0.000000D+00  E= 3.459353D+00

 Vector  126  Occ=0.000000D+00  E= 3.563492D+00

 Vector  127  Occ=0.000000D+00  E= 3.574526D+00

 Vector  128  Occ=0.000000D+00  E= 3.635708D+00

 Vector  129  Occ=0.000000D+00  E= 3.767844D+00

 Vector  130  Occ=0.000000D+00  E= 3.784932D+00

 Vector  131  Occ=0.000000D+00  E= 3.876923D+00

 Vector  132  Occ=0.000000D+00  E= 3.896862D+00

 Vector  133  Occ=0.000000D+00  E= 3.983755D+00

 Vector  134  Occ=0.000000D+00  E= 4.051494D+00

 Vector  135  Occ=0.000000D+00  E= 4.151159D+00

 Vector  136  Occ=0.000000D+00  E= 4.189503D+00

 Vector  137  Occ=0.000000D+00  E= 4.264138D+00

 Vector  138  Occ=0.000000D+00  E= 4.293561D+00

 Vector  139  Occ=0.000000D+00  E= 4.335610D+00

 Vector  140  Occ=0.000000D+00  E= 4.464497D+00

 Vector  141  Occ=0.000000D+00  E= 4.561569D+00

 Vector  142  Occ=0.000000D+00  E= 4.572413D+00

 Vector  143  Occ=0.000000D+00  E= 4.737816D+00

 Vector  144  Occ=0.000000D+00  E= 4.771666D+00

 Vector  145  Occ=0.000000D+00  E= 5.182066D+00

 Vector  146  Occ=0.000000D+00  E= 5.346696D+00

 Vector  147  Occ=0.000000D+00  E= 5.577723D+00

 Vector  148  Occ=0.000000D+00  E= 5.604058D+00

 Vector  149  Occ=0.000000D+00  E= 5.667097D+00

 Vector  150  Occ=0.000000D+00  E= 5.763168D+00

 Vector  151  Occ=0.000000D+00  E= 5.908728D+00

 Vector  152  Occ=0.000000D+00  E= 6.465137D+00

 Vector  153  Occ=0.000000D+00  E= 6.506642D+00

 Vector  154  Occ=0.000000D+00  E= 6.676177D+00

 Vector  155  Occ=0.000000D+00  E= 6.841998D+00

 Vector  156  Occ=0.000000D+00  E= 7.055683D+00

 Vector  157  Occ=0.000000D+00  E= 2.194040D+01

 Vector  158  Occ=0.000000D+00  E= 2.198046D+01

 Vector  159  Occ=0.000000D+00  E= 2.210023D+01

 Vector  160  Occ=0.000000D+00  E= 4.341323D+01

     Multipole analysis of the density
     ---------------------------------

     L   x y z        total         alpha         beta         nuclear
     -   - - -        -----         -----         ----         -------
     0   0 0 0     -0.000000    -16.000000    -16.000000     32.000000

     1   1 0 0      0.692405     -6.226251     -6.226251     13.144908
     1   0 1 0      0.329442     -1.633917     -1.633917      3.597275
     1   0 0 1     -0.058553      5.320542      5.320542    -10.699638

     2   2 0 0    -20.048026    -54.331559    -54.331559     88.615093
     2   1 1 0     -1.083871     13.855516     13.855516    -28.794903
     2   1 0 1      0.121285     26.524299     26.524299    -52.927314
     2   0 2 0    -17.809325    -40.525554    -40.525554     63.241783
     2   0 1 1      0.212711    -15.339756    -15.339756     30.892223

 Total times  cpu:      428.8s     wall:      435.0s
