============================== echo of input deck ==============================
echo
start methyloxirane_blyp-def2-tzvp_488.9_19.inp
title "methyloxirane roa calculations at 488.9 nm, input generated in va  with delta_type=2"
charge 0

geometry units angstrom nocenter noautoz noautosym nucleus point;symmetry c1
 O -0.879107 -0.180295  0.205258
 C  0.574246 -0.157702  0.122663
 C -0.185517  1.088386  0.340095
 C  1.184419 -0.519978 -1.210285
 H  1.057948 -0.603274  0.997075
 H -0.228083  1.538035  1.335351
 H -0.325300  1.782098 -0.492682
 H  2.261903 -0.210006 -1.246137
 H  1.141436 -1.623964 -1.376599
 H  0.644499 -0.020572 -2.043950
end

basis spherical
* library def2-TZVP
end

 set prop:newaoresp 1
 set aor:roadata T
 set cphf:maxsub 100
 set cphf:acc 1.0d-10
 set cphf:maxiter 100

property
    response 1   0.093196
    bdtensor
    convergence 1e-7
    damping 0.0037
    giao
end

dft
 direct
 mult 1
 xc becke88 lyp
 iterations 250
 tolerances tight
 grid xfine
 convergence nolevelshifting
 convergence energy 1e-8
 convergence gradient 1e-7

end

task dft gradient
task dft property
================================================================================

 Output coordinates in angstroms (scale by  1.889725989 to convert to a.u.)

  No.       Tag          Charge          X              Y              Z
 ---- ---------------- ---------- -------------- -------------- --------------
    1 O                    8.0000    -0.87910700    -0.18029500     0.20525800
    2 C                    6.0000     0.57424600    -0.15770200     0.12266300
    3 C                    6.0000    -0.18551700     1.08838600     0.34009500
    4 C                    6.0000     1.18441900    -0.51997800    -1.21028500
    5 H                    1.0000     1.05794800    -0.60327400     0.99707500
    6 H                    1.0000    -0.22808300     1.53803500     1.33535100
    7 H                    1.0000    -0.32530000     1.78209800    -0.49268200
    8 H                    1.0000     2.26190300    -0.21000600    -1.24613700
    9 H                    1.0000     1.14143600    -1.62396400    -1.37659900
   10 H                    1.0000     0.64449900    -0.02057200    -2.04395000

         Total DFT energy =     -193.108733606159
         Total DFT energy =     -193.108733606382

                       DFT Final Molecular Orbital Analysis
                       ------------------------------------

 Vector    1  Occ=2.000000D+00  E=-1.877997D+01

 Vector   81  Occ=0.000000D+00  E= 1.862071D+00

 Vector   82  Occ=0.000000D+00  E= 1.917886D+00

 Vector   83  Occ=0.000000D+00  E= 1.991370D+00

 Vector   84  Occ=0.000000D+00  E= 1.993627D+00

 Vector   85  Occ=0.000000D+00  E= 2.088811D+00

 Vector   86  Occ=0.000000D+00  E= 2.094706D+00

 Vector   87  Occ=0.000000D+00  E= 2.165720D+00

 Vector   88  Occ=0.000000D+00  E= 2.200935D+00

 Vector   89  Occ=0.000000D+00  E= 2.219378D+00

 Vector   90  Occ=0.000000D+00  E= 2.230937D+00

 Vector   91  Occ=0.000000D+00  E= 2.257700D+00

 Vector   92  Occ=0.000000D+00  E= 2.279912D+00

 Vector   93  Occ=0.000000D+00  E= 2.350019D+00

 Vector   94  Occ=0.000000D+00  E= 2.375569D+00

 Vector   95  Occ=0.000000D+00  E= 2.445059D+00

 Vector   96  Occ=0.000000D+00  E= 2.463334D+00

 Vector   97  Occ=0.000000D+00  E= 2.465432D+00

 Vector   98  Occ=0.000000D+00  E= 2.521842D+00

 Vector   99  Occ=0.000000D+00  E= 2.530556D+00

 Vector  100  Occ=0.000000D+00  E= 2.556022D+00

 Vector  101  Occ=0.000000D+00  E= 2.597852D+00

 Vector  102  Occ=0.000000D+00  E= 2.646403D+00

 Vector  103  Occ=0.000000D+00  E= 2.660029D+00

 Vector  104  Occ=0.000000D+00  E= 2.707824D+00

 Vector  105  Occ=0.000000D+00  E= 2.735275D+00

 Vector  106  Occ=0.000000D+00  E= 2.801163D+00

 Vector  107  Occ=0.000000D+00  E= 2.829781D+00

 Vector  108  Occ=0.000000D+00  E= 2.858353D+00

 Vector  109  Occ=0.000000D+00  E= 2.894913D+00

 Vector  110  Occ=0.000000D+00  E= 2.959461D+00

 Vector  111  Occ=0.000000D+00  E= 2.966230D+00

 Vector  112  Occ=0.000000D+00  E= 2.990381D+00

 Vector  113  Occ=0.000000D+00  E= 3.014416D+00

 Vector  114  Occ=0.000000D+00  E= 3.031074D+00

 Vector  115  Occ=0.000000D+00  E= 3.067514D+00

 Vector  116  Occ=0.000000D+00  E= 3.142391D+00

 Vector  117  Occ=0.000000D+00  E= 3.166235D+00

 Vector  118  Occ=0.000000D+00  E= 3.185652D+00

 Vector  119  Occ=0.000000D+00  E= 3.273013D+00

 Vector  120  Occ=0.000000D+00  E= 3.284046D+00

 Vector  121  Occ=0.000000D+00  E= 3.313000D+00

 Vector  122  Occ=0.000000D+00  E= 3.350578D+00

 Vector  123  Occ=0.000000D+00  E= 3.368837D+00

 Vector  124  Occ=0.000000D+00  E= 3.428512D+00

 Vector  125  Occ=0.000000D+00  E= 3.449232D+00

 Vector  126  Occ=0.000000D+00  E= 3.560215D+00

 Vector  127  Occ=0.000000D+00  E= 3.570831D+00

 Vector  128  Occ=0.000000D+00  E= 3.630402D+00

 Vector  129  Occ=0.000000D+00  E= 3.760474D+00

 Vector  130  Occ=0.000000D+00  E= 3.782074D+00

 Vector  131  Occ=0.000000D+00  E= 3.876090D+00

 Vector  132  Occ=0.000000D+00  E= 3.895748D+00

 Vector  133  Occ=0.000000D+00  E= 3.979733D+00

 Vector  134  Occ=0.000000D+00  E= 4.048033D+00

 Vector  135  Occ=0.000000D+00  E= 4.126384D+00

 Vector  136  Occ=0.000000D+00  E= 4.190474D+00

 Vector  137  Occ=0.000000D+00  E= 4.252137D+00

 Vector  138  Occ=0.000000D+00  E= 4.262224D+00

 Vector  139  Occ=0.000000D+00  E= 4.329630D+00

 Vector  140  Occ=0.000000D+00  E= 4.459691D+00

 Vector  141  Occ=0.000000D+00  E= 4.555547D+00

 Vector  142  Occ=0.000000D+00  E= 4.569598D+00

 Vector  143  Occ=0.000000D+00  E= 4.737598D+00

 Vector  144  Occ=0.000000D+00  E= 4.771584D+00

 Vector  145  Occ=0.000000D+00  E= 5.181632D+00

 Vector  146  Occ=0.000000D+00  E= 5.346547D+00

 Vector  147  Occ=0.000000D+00  E= 5.577476D+00

 Vector  148  Occ=0.000000D+00  E= 5.603588D+00

 Vector  149  Occ=0.000000D+00  E= 5.666648D+00

 Vector  150  Occ=0.000000D+00  E= 5.763291D+00

 Vector  151  Occ=0.000000D+00  E= 5.908413D+00

 Vector  152  Occ=0.000000D+00  E= 6.464430D+00

 Vector  153  Occ=0.000000D+00  E= 6.506993D+00

 Vector  154  Occ=0.000000D+00  E= 6.676099D+00

 Vector  155  Occ=0.000000D+00  E= 6.841905D+00

 Vector  156  Occ=0.000000D+00  E= 7.055408D+00

 Vector  157  Occ=0.000000D+00  E= 2.190761D+01

 Vector  158  Occ=0.000000D+00  E= 2.195734D+01

 Vector  159  Occ=0.000000D+00  E= 2.209499D+01

 Vector  160  Occ=0.000000D+00  E= 4.341403D+01

     Multipole analysis of the density
     ---------------------------------

     L   x y z        total         alpha         beta         nuclear
     -   - - -        -----         -----         ----         -------
     0   0 0 0     -0.000000    -16.000000    -16.000000     32.000000

     1   1 0 0      0.684746     -6.232395     -6.232395     13.149535
     1   0 1 0      0.328772     -1.615918     -1.615918      3.560608
     1   0 0 1     -0.050881      5.331971      5.331971    -10.714822

     2   2 0 0    -20.072126    -54.489260    -54.489260     88.906394
     2   1 1 0     -1.103819     13.897968     13.897968    -28.899755
     2   1 0 1      0.174930     26.508159     26.508159    -52.841387
     2   0 2 0    -17.861846    -40.581599    -40.581599     63.301351
     2   0 1 1      0.241218    -15.410534    -15.410534     31.062286

 Total times  cpu:      621.6s     wall:      632.7s
