============================== echo of input deck ==============================
echo
start methyloxirane_blyp-def2-tzvp_488.9_22.inp
title "methyloxirane roa calculations at 488.9 nm, input generated in va  with delta_type=2"
charge 0

geometry units angstrom nocenter noautoz noautosym nucleus point;symmetry c1
 O -0.879093 -0.180290  0.205258
 C  0.574085 -0.157598  0.122412
 C -0.185520  1.088295  0.340145
 C  1.183830 -0.522466 -1.211692
 H  1.059637 -0.604809  1.000040
 H -0.228061  1.538276  1.335982
 H -0.325464  1.783001 -0.493863
 H  2.259942 -0.211177 -1.246301
 H  1.142985 -1.585176 -1.371322
 H  0.652112 -0.028419 -2.032324
end

basis spherical
* library def2-TZVP
end

 set prop:newaoresp 1
 set aor:roadata T
 set cphf:maxsub 100
 set cphf:acc 1.0d-10
 set cphf:maxiter 100

property
    response 1   0.093196
    bdtensor
    convergence 1e-7
    damping 0.0037
    giao
end

dft
 direct
 mult 1
 xc becke88 lyp
 iterations 250
 tolerances tight
 grid xfine
 convergence nolevelshifting
 convergence energy 1e-8
 convergence gradient 1e-7

end

task dft gradient
task dft property
================================================================================

 Output coordinates in angstroms (scale by  1.889725989 to convert to a.u.)

  No.       Tag          Charge          X              Y              Z
 ---- ---------------- ---------- -------------- -------------- --------------
    1 O                    8.0000    -0.87909300    -0.18029000     0.20525800
    2 C                    6.0000     0.57408500    -0.15759800     0.12241200
    3 C                    6.0000    -0.18552000     1.08829500     0.34014500
    4 C                    6.0000     1.18383000    -0.52246600    -1.21169200
    5 H                    1.0000     1.05963700    -0.60480900     1.00004000
    6 H                    1.0000    -0.22806100     1.53827600     1.33598200
    7 H                    1.0000    -0.32546400     1.78300100    -0.49386300
    8 H                    1.0000     2.25994200    -0.21117700    -1.24630100
    9 H                    1.0000     1.14298500    -1.58517600    -1.37132200
   10 H                    1.0000     0.65211200    -0.02841900    -2.03232400

         Total DFT energy =     -193.108757945773
         Total DFT energy =     -193.108757945935

                       DFT Final Molecular Orbital Analysis
                       ------------------------------------

 Vector    1  Occ=2.000000D+00  E=-1.877981D+01

 Vector   81  Occ=0.000000D+00  E= 1.866787D+00

 Vector   82  Occ=0.000000D+00  E= 1.922456D+00

 Vector   83  Occ=0.000000D+00  E= 1.991266D+00

 Vector   84  Occ=0.000000D+00  E= 1.992951D+00

 Vector   85  Occ=0.000000D+00  E= 2.089519D+00

 Vector   86  Occ=0.000000D+00  E= 2.096810D+00

 Vector   87  Occ=0.000000D+00  E= 2.165174D+00

 Vector   88  Occ=0.000000D+00  E= 2.199639D+00

 Vector   89  Occ=0.000000D+00  E= 2.228751D+00

 Vector   90  Occ=0.000000D+00  E= 2.243923D+00

 Vector   91  Occ=0.000000D+00  E= 2.267674D+00

 Vector   92  Occ=0.000000D+00  E= 2.282800D+00

 Vector   93  Occ=0.000000D+00  E= 2.349908D+00

 Vector   94  Occ=0.000000D+00  E= 2.386745D+00

 Vector   95  Occ=0.000000D+00  E= 2.453031D+00

 Vector   96  Occ=0.000000D+00  E= 2.472979D+00

 Vector   97  Occ=0.000000D+00  E= 2.486125D+00

 Vector   98  Occ=0.000000D+00  E= 2.525876D+00

 Vector   99  Occ=0.000000D+00  E= 2.534321D+00

 Vector  100  Occ=0.000000D+00  E= 2.560286D+00

 Vector  101  Occ=0.000000D+00  E= 2.599208D+00

 Vector  102  Occ=0.000000D+00  E= 2.650814D+00

 Vector  103  Occ=0.000000D+00  E= 2.662110D+00

 Vector  104  Occ=0.000000D+00  E= 2.713850D+00

 Vector  105  Occ=0.000000D+00  E= 2.739112D+00

 Vector  106  Occ=0.000000D+00  E= 2.812912D+00

 Vector  107  Occ=0.000000D+00  E= 2.830733D+00

 Vector  108  Occ=0.000000D+00  E= 2.864657D+00

 Vector  109  Occ=0.000000D+00  E= 2.896654D+00

 Vector  110  Occ=0.000000D+00  E= 2.960456D+00

 Vector  111  Occ=0.000000D+00  E= 2.965203D+00

 Vector  112  Occ=0.000000D+00  E= 2.989897D+00

 Vector  113  Occ=0.000000D+00  E= 3.006442D+00

 Vector  114  Occ=0.000000D+00  E= 3.037939D+00

 Vector  115  Occ=0.000000D+00  E= 3.068336D+00

 Vector  116  Occ=0.000000D+00  E= 3.146415D+00

 Vector  117  Occ=0.000000D+00  E= 3.167719D+00

 Vector  118  Occ=0.000000D+00  E= 3.191868D+00

 Vector  119  Occ=0.000000D+00  E= 3.281049D+00

 Vector  120  Occ=0.000000D+00  E= 3.291132D+00

 Vector  121  Occ=0.000000D+00  E= 3.317644D+00

 Vector  122  Occ=0.000000D+00  E= 3.352822D+00

 Vector  123  Occ=0.000000D+00  E= 3.373260D+00

 Vector  124  Occ=0.000000D+00  E= 3.428478D+00

 Vector  125  Occ=0.000000D+00  E= 3.455869D+00

 Vector  126  Occ=0.000000D+00  E= 3.562231D+00

 Vector  127  Occ=0.000000D+00  E= 3.571845D+00

 Vector  128  Occ=0.000000D+00  E= 3.641575D+00

 Vector  129  Occ=0.000000D+00  E= 3.765521D+00

 Vector  130  Occ=0.000000D+00  E= 3.784195D+00

 Vector  131  Occ=0.000000D+00  E= 3.878907D+00

 Vector  132  Occ=0.000000D+00  E= 3.898495D+00

 Vector  133  Occ=0.000000D+00  E= 3.984249D+00

 Vector  134  Occ=0.000000D+00  E= 4.048960D+00

 Vector  135  Occ=0.000000D+00  E= 4.153480D+00

 Vector  136  Occ=0.000000D+00  E= 4.197363D+00

 Vector  137  Occ=0.000000D+00  E= 4.259089D+00

 Vector  138  Occ=0.000000D+00  E= 4.283941D+00

 Vector  139  Occ=0.000000D+00  E= 4.338022D+00

 Vector  140  Occ=0.000000D+00  E= 4.468749D+00

 Vector  141  Occ=0.000000D+00  E= 4.568200D+00

 Vector  142  Occ=0.000000D+00  E= 4.572024D+00

 Vector  143  Occ=0.000000D+00  E= 4.738059D+00

 Vector  144  Occ=0.000000D+00  E= 4.771181D+00

 Vector  145  Occ=0.000000D+00  E= 5.181717D+00

 Vector  146  Occ=0.000000D+00  E= 5.346719D+00

 Vector  147  Occ=0.000000D+00  E= 5.577464D+00

 Vector  148  Occ=0.000000D+00  E= 5.603718D+00

 Vector  149  Occ=0.000000D+00  E= 5.666573D+00

 Vector  150  Occ=0.000000D+00  E= 5.763512D+00

 Vector  151  Occ=0.000000D+00  E= 5.909019D+00

 Vector  152  Occ=0.000000D+00  E= 6.464616D+00

 Vector  153  Occ=0.000000D+00  E= 6.507032D+00

 Vector  154  Occ=0.000000D+00  E= 6.676214D+00

 Vector  155  Occ=0.000000D+00  E= 6.842129D+00

 Vector  156  Occ=0.000000D+00  E= 7.055443D+00

 Vector  157  Occ=0.000000D+00  E= 2.193926D+01

 Vector  158  Occ=0.000000D+00  E= 2.198629D+01

 Vector  159  Occ=0.000000D+00  E= 2.209998D+01

 Vector  160  Occ=0.000000D+00  E= 4.341410D+01

     Multipole analysis of the density
     ---------------------------------

     L   x y z        total         alpha         beta         nuclear
     -   - - -        -----         -----         ----         -------
     0   0 0 0     -0.000000    -16.000000    -16.000000     32.000000

     1   1 0 0      0.684746     -6.236497     -6.236497     13.157741
     1   0 1 0      0.319245     -1.634447     -1.634447      3.588140
     1   0 0 1     -0.058943      5.318957      5.318957    -10.696858

     2   2 0 0    -20.052441    -54.476823    -54.476823     88.901204
     2   1 1 0     -1.121304     13.861086     13.861086    -28.843475
     2   1 0 1      0.161176     26.507654     26.507654    -52.854132
     2   0 2 0    -17.824443    -40.377878    -40.377878     62.931313
     2   0 1 1      0.271523    -15.348602    -15.348602     30.968726

 Total times  cpu:      610.4s     wall:      624.6s
