============================== echo of input deck ==============================
echo
start methyloxirane_blyp-def2-tzvp_488.9_12.inp
title "methyloxirane roa calculations at 488.9 nm, input generated in va  with delta_type=2"
charge 0

geometry units angstrom nocenter noautoz noautosym nucleus point;symmetry c1
 O -0.879394 -0.181682  0.205577
 C  0.576527 -0.156678  0.128191
 C -0.186398  1.090351  0.336452
 C  1.183607 -0.519937 -1.214477
 H  1.048328 -0.622145  1.001003
 H -0.217764  1.528462  1.337601
 H -0.329845  1.796121 -0.486574
 H  2.241056 -0.217446 -1.240280
 H  1.148138 -1.606826 -1.371819
 H  0.660029 -0.029909 -2.044453
end

basis spherical
* library def2-TZVP
end

 set prop:newaoresp 1
 set aor:roadata T
 set cphf:maxsub 100
 set cphf:acc 1.0d-10
 set cphf:maxiter 100

property
    response 1   0.093196
    bdtensor
    convergence 1e-7
    damping 0.0037
    giao
end

dft
 direct
 mult 1
 xc becke88 lyp
 iterations 250
 tolerances tight
 grid xfine
 convergence nolevelshifting
 convergence energy 1e-8
 convergence gradient 1e-7

end

task dft gradient
task dft property
================================================================================

 Output coordinates in angstroms (scale by  1.889725989 to convert to a.u.)

  No.       Tag          Charge          X              Y              Z
 ---- ---------------- ---------- -------------- -------------- --------------
    1 O                    8.0000    -0.87939400    -0.18168200     0.20557700
    2 C                    6.0000     0.57652700    -0.15667800     0.12819100
    3 C                    6.0000    -0.18639800     1.09035100     0.33645200
    4 C                    6.0000     1.18360700    -0.51993700    -1.21447700
    5 H                    1.0000     1.04832800    -0.62214500     1.00100300
    6 H                    1.0000    -0.21776400     1.52846200     1.33760100
    7 H                    1.0000    -0.32984500     1.79612100    -0.48657400
    8 H                    1.0000     2.24105600    -0.21744600    -1.24028000
    9 H                    1.0000     1.14813800    -1.60682600    -1.37181900
   10 H                    1.0000     0.66002900    -0.02990900    -2.04445300

         Total DFT energy =     -193.109135059810
         Total DFT energy =     -193.109135060147

                       DFT Final Molecular Orbital Analysis
                       ------------------------------------

 Vector    1  Occ=2.000000D+00  E=-1.877928D+01

 Vector   81  Occ=0.000000D+00  E= 1.866426D+00

 Vector   82  Occ=0.000000D+00  E= 1.918379D+00

 Vector   83  Occ=0.000000D+00  E= 1.988291D+00

 Vector   84  Occ=0.000000D+00  E= 1.994631D+00

 Vector   85  Occ=0.000000D+00  E= 2.088350D+00

 Vector   86  Occ=0.000000D+00  E= 2.096741D+00

 Vector   87  Occ=0.000000D+00  E= 2.163532D+00

 Vector   88  Occ=0.000000D+00  E= 2.200214D+00

 Vector   89  Occ=0.000000D+00  E= 2.229424D+00

 Vector   90  Occ=0.000000D+00  E= 2.244022D+00

 Vector   91  Occ=0.000000D+00  E= 2.263954D+00

 Vector   92  Occ=0.000000D+00  E= 2.283201D+00

 Vector   93  Occ=0.000000D+00  E= 2.344185D+00

 Vector   94  Occ=0.000000D+00  E= 2.388133D+00

 Vector   95  Occ=0.000000D+00  E= 2.445819D+00

 Vector   96  Occ=0.000000D+00  E= 2.470937D+00

 Vector   97  Occ=0.000000D+00  E= 2.484041D+00

 Vector   98  Occ=0.000000D+00  E= 2.524071D+00

 Vector   99  Occ=0.000000D+00  E= 2.533168D+00

 Vector  100  Occ=0.000000D+00  E= 2.551819D+00

 Vector  101  Occ=0.000000D+00  E= 2.596387D+00

 Vector  102  Occ=0.000000D+00  E= 2.644918D+00

 Vector  103  Occ=0.000000D+00  E= 2.667119D+00

 Vector  104  Occ=0.000000D+00  E= 2.720049D+00

 Vector  105  Occ=0.000000D+00  E= 2.742972D+00

 Vector  106  Occ=0.000000D+00  E= 2.807577D+00

 Vector  107  Occ=0.000000D+00  E= 2.829168D+00

 Vector  108  Occ=0.000000D+00  E= 2.862110D+00

 Vector  109  Occ=0.000000D+00  E= 2.897181D+00

 Vector  110  Occ=0.000000D+00  E= 2.958353D+00

 Vector  111  Occ=0.000000D+00  E= 2.968348D+00

 Vector  112  Occ=0.000000D+00  E= 2.991585D+00

 Vector  113  Occ=0.000000D+00  E= 3.004934D+00

 Vector  114  Occ=0.000000D+00  E= 3.029141D+00

 Vector  115  Occ=0.000000D+00  E= 3.073204D+00

 Vector  116  Occ=0.000000D+00  E= 3.142480D+00

 Vector  117  Occ=0.000000D+00  E= 3.163233D+00

 Vector  118  Occ=0.000000D+00  E= 3.187381D+00

 Vector  119  Occ=0.000000D+00  E= 3.273017D+00

 Vector  120  Occ=0.000000D+00  E= 3.294370D+00

 Vector  121  Occ=0.000000D+00  E= 3.310680D+00

 Vector  122  Occ=0.000000D+00  E= 3.352070D+00

 Vector  123  Occ=0.000000D+00  E= 3.372980D+00

 Vector  124  Occ=0.000000D+00  E= 3.419329D+00

 Vector  125  Occ=0.000000D+00  E= 3.452440D+00

 Vector  126  Occ=0.000000D+00  E= 3.566669D+00

 Vector  127  Occ=0.000000D+00  E= 3.570326D+00

 Vector  128  Occ=0.000000D+00  E= 3.633588D+00

 Vector  129  Occ=0.000000D+00  E= 3.768364D+00

 Vector  130  Occ=0.000000D+00  E= 3.782707D+00

 Vector  131  Occ=0.000000D+00  E= 3.876571D+00

 Vector  132  Occ=0.000000D+00  E= 3.891374D+00

 Vector  133  Occ=0.000000D+00  E= 3.995416D+00

 Vector  134  Occ=0.000000D+00  E= 4.043283D+00

 Vector  135  Occ=0.000000D+00  E= 4.147038D+00

 Vector  136  Occ=0.000000D+00  E= 4.192327D+00

 Vector  137  Occ=0.000000D+00  E= 4.253272D+00

 Vector  138  Occ=0.000000D+00  E= 4.288105D+00

 Vector  139  Occ=0.000000D+00  E= 4.326900D+00

 Vector  140  Occ=0.000000D+00  E= 4.457710D+00

 Vector  141  Occ=0.000000D+00  E= 4.562214D+00

 Vector  142  Occ=0.000000D+00  E= 4.570646D+00

 Vector  143  Occ=0.000000D+00  E= 4.737232D+00

 Vector  144  Occ=0.000000D+00  E= 4.767602D+00

 Vector  145  Occ=0.000000D+00  E= 5.180962D+00

 Vector  146  Occ=0.000000D+00  E= 5.344722D+00

 Vector  147  Occ=0.000000D+00  E= 5.573392D+00

 Vector  148  Occ=0.000000D+00  E= 5.603324D+00

 Vector  149  Occ=0.000000D+00  E= 5.659827D+00

 Vector  150  Occ=0.000000D+00  E= 5.759177D+00

 Vector  151  Occ=0.000000D+00  E= 5.905483D+00

 Vector  152  Occ=0.000000D+00  E= 6.463431D+00

 Vector  153  Occ=0.000000D+00  E= 6.505192D+00

 Vector  154  Occ=0.000000D+00  E= 6.675835D+00

 Vector  155  Occ=0.000000D+00  E= 6.841547D+00

 Vector  156  Occ=0.000000D+00  E= 7.056215D+00

 Vector  157  Occ=0.000000D+00  E= 2.193445D+01

 Vector  158  Occ=0.000000D+00  E= 2.197731D+01

 Vector  159  Occ=0.000000D+00  E= 2.208827D+01

 Vector  160  Occ=0.000000D+00  E= 4.341073D+01

     Multipole analysis of the density
     ---------------------------------

     L   x y z        total         alpha         beta         nuclear
     -   - - -        -----         -----         ----         -------
     0   0 0 0     -0.000000    -16.000000    -16.000000     32.000000

     1   1 0 0      0.690917     -6.228148     -6.228148     13.147213
     1   0 1 0      0.326370     -1.610528     -1.610528      3.547426
     1   0 0 1     -0.056109      5.318840      5.318840    -10.693789

     2   2 0 0    -20.067937    -54.362288    -54.362288     88.656638
     2   1 1 0     -1.125502     13.909096     13.909096    -28.943694
     2   1 0 1      0.181424     26.497442     26.497442    -52.813461
     2   0 2 0    -17.808348    -40.590106    -40.590106     63.371863
     2   0 1 1      0.194674    -15.353555    -15.353555     30.901783

 Total times  cpu:      735.7s     wall:      744.8s
