============================== echo of input deck ==============================
echo
start methyloxirane_blyp-def2-tzvp_488.9_23.inp
title "methyloxirane roa calculations at 488.9 nm, input generated in va  with delta_type=2"
charge 0

geometry units angstrom nocenter noautoz noautosym nucleus point;symmetry c1
 O -0.879111 -0.180290  0.205271
 C  0.573841 -0.157289  0.121933
 C -0.185501  1.088299  0.340321
 C  1.184056 -0.519075 -1.212573
 H  1.062560 -0.607664  1.005682
 H -0.228037  1.537457  1.334198
 H -0.325440  1.783257 -0.494254
 H  2.248470 -0.213742 -1.246189
 H  1.141752 -1.614915 -1.375833
 H  0.662114 -0.036794 -2.017493
end

basis spherical
* library def2-TZVP
end

 set prop:newaoresp 1
 set aor:roadata T
 set cphf:maxsub 100
 set cphf:acc 1.0d-10
 set cphf:maxiter 100

property
    response 1   0.093196
    bdtensor
    convergence 1e-7
    damping 0.0037
    giao
end

dft
 direct
 mult 1
 xc becke88 lyp
 iterations 250
 tolerances tight
 grid xfine
 convergence nolevelshifting
 convergence energy 1e-8
 convergence gradient 1e-7

end

task dft gradient
task dft property
================================================================================

 Output coordinates in angstroms (scale by  1.889725989 to convert to a.u.)

  No.       Tag          Charge          X              Y              Z
 ---- ---------------- ---------- -------------- -------------- --------------
    1 O                    8.0000    -0.87911100    -0.18029000     0.20527100
    2 C                    6.0000     0.57384100    -0.15728900     0.12193300
    3 C                    6.0000    -0.18550100     1.08829900     0.34032100
    4 C                    6.0000     1.18405600    -0.51907500    -1.21257300
    5 H                    1.0000     1.06256000    -0.60766400     1.00568200
    6 H                    1.0000    -0.22803700     1.53745700     1.33419800
    7 H                    1.0000    -0.32544000     1.78325700    -0.49425400
    8 H                    1.0000     2.24847000    -0.21374200    -1.24618900
    9 H                    1.0000     1.14175200    -1.61491500    -1.37583300
   10 H                    1.0000     0.66211400    -0.03679400    -2.01749300

         Total DFT energy =     -193.108840846025
         Total DFT energy =     -193.108840846422

                       DFT Final Molecular Orbital Analysis
                       ------------------------------------

 Vector    1  Occ=2.000000D+00  E=-1.877992D+01

 Vector   81  Occ=0.000000D+00  E= 1.869359D+00

 Vector   82  Occ=0.000000D+00  E= 1.919386D+00

 Vector   83  Occ=0.000000D+00  E= 1.991561D+00

 Vector   84  Occ=0.000000D+00  E= 1.993513D+00

 Vector   85  Occ=0.000000D+00  E= 2.087838D+00

 Vector   86  Occ=0.000000D+00  E= 2.096684D+00

 Vector   87  Occ=0.000000D+00  E= 2.167597D+00

 Vector   88  Occ=0.000000D+00  E= 2.198185D+00

 Vector   89  Occ=0.000000D+00  E= 2.228606D+00

 Vector   90  Occ=0.000000D+00  E= 2.244052D+00

 Vector   91  Occ=0.000000D+00  E= 2.265487D+00

 Vector   92  Occ=0.000000D+00  E= 2.281200D+00

 Vector   93  Occ=0.000000D+00  E= 2.350323D+00

 Vector   94  Occ=0.000000D+00  E= 2.387763D+00

 Vector   95  Occ=0.000000D+00  E= 2.449813D+00

 Vector   96  Occ=0.000000D+00  E= 2.474337D+00

 Vector   97  Occ=0.000000D+00  E= 2.485200D+00

 Vector   98  Occ=0.000000D+00  E= 2.525776D+00

 Vector   99  Occ=0.000000D+00  E= 2.535431D+00

 Vector  100  Occ=0.000000D+00  E= 2.562686D+00

 Vector  101  Occ=0.000000D+00  E= 2.598533D+00

 Vector  102  Occ=0.000000D+00  E= 2.647329D+00

 Vector  103  Occ=0.000000D+00  E= 2.664402D+00

 Vector  104  Occ=0.000000D+00  E= 2.712044D+00

 Vector  105  Occ=0.000000D+00  E= 2.741747D+00

 Vector  106  Occ=0.000000D+00  E= 2.803979D+00

 Vector  107  Occ=0.000000D+00  E= 2.830894D+00

 Vector  108  Occ=0.000000D+00  E= 2.860713D+00

 Vector  109  Occ=0.000000D+00  E= 2.898590D+00

 Vector  110  Occ=0.000000D+00  E= 2.960922D+00

 Vector  111  Occ=0.000000D+00  E= 2.965508D+00

 Vector  112  Occ=0.000000D+00  E= 2.989233D+00

 Vector  113  Occ=0.000000D+00  E= 3.007927D+00

 Vector  114  Occ=0.000000D+00  E= 3.034132D+00

 Vector  115  Occ=0.000000D+00  E= 3.070434D+00

 Vector  116  Occ=0.000000D+00  E= 3.143119D+00

 Vector  117  Occ=0.000000D+00  E= 3.168527D+00

 Vector  118  Occ=0.000000D+00  E= 3.191543D+00

 Vector  119  Occ=0.000000D+00  E= 3.281517D+00

 Vector  120  Occ=0.000000D+00  E= 3.291780D+00

 Vector  121  Occ=0.000000D+00  E= 3.317800D+00

 Vector  122  Occ=0.000000D+00  E= 3.351684D+00

 Vector  123  Occ=0.000000D+00  E= 3.373605D+00

 Vector  124  Occ=0.000000D+00  E= 3.430330D+00

 Vector  125  Occ=0.000000D+00  E= 3.461211D+00

 Vector  126  Occ=0.000000D+00  E= 3.561730D+00

 Vector  127  Occ=0.000000D+00  E= 3.572516D+00

 Vector  128  Occ=0.000000D+00  E= 3.632533D+00

 Vector  129  Occ=0.000000D+00  E= 3.769487D+00

 Vector  130  Occ=0.000000D+00  E= 3.785565D+00

 Vector  131  Occ=0.000000D+00  E= 3.879822D+00

 Vector  132  Occ=0.000000D+00  E= 3.893880D+00

 Vector  133  Occ=0.000000D+00  E= 3.991423D+00

 Vector  134  Occ=0.000000D+00  E= 4.048885D+00

 Vector  135  Occ=0.000000D+00  E= 4.139182D+00

 Vector  136  Occ=0.000000D+00  E= 4.201331D+00

 Vector  137  Occ=0.000000D+00  E= 4.254714D+00

 Vector  138  Occ=0.000000D+00  E= 4.284302D+00

 Vector  139  Occ=0.000000D+00  E= 4.337050D+00

 Vector  140  Occ=0.000000D+00  E= 4.482319D+00

 Vector  141  Occ=0.000000D+00  E= 4.556385D+00

 Vector  142  Occ=0.000000D+00  E= 4.573440D+00

 Vector  143  Occ=0.000000D+00  E= 4.738189D+00

 Vector  144  Occ=0.000000D+00  E= 4.771117D+00

 Vector  145  Occ=0.000000D+00  E= 5.181557D+00

 Vector  146  Occ=0.000000D+00  E= 5.346554D+00

 Vector  147  Occ=0.000000D+00  E= 5.577411D+00

 Vector  148  Occ=0.000000D+00  E= 5.603337D+00

 Vector  149  Occ=0.000000D+00  E= 5.667102D+00

 Vector  150  Occ=0.000000D+00  E= 5.763435D+00

 Vector  151  Occ=0.000000D+00  E= 5.908899D+00

 Vector  152  Occ=0.000000D+00  E= 6.464476D+00

 Vector  153  Occ=0.000000D+00  E= 6.506769D+00

 Vector  154  Occ=0.000000D+00  E= 6.676538D+00

 Vector  155  Occ=0.000000D+00  E= 6.842036D+00

 Vector  156  Occ=0.000000D+00  E= 7.055415D+00

 Vector  157  Occ=0.000000D+00  E= 2.194172D+01

 Vector  158  Occ=0.000000D+00  E= 2.198288D+01

 Vector  159  Occ=0.000000D+00  E= 2.209355D+01

 Vector  160  Occ=0.000000D+00  E= 4.341451D+01

     Multipole analysis of the density
     ---------------------------------

     L   x y z        total         alpha         beta         nuclear
     -   - - -        -----         -----         ----         -------
     0   0 0 0     -0.000000    -16.000000    -16.000000     32.000000

     1   1 0 0      0.684287     -6.236849     -6.236849     13.157986
     1   0 1 0      0.331084     -1.607861     -1.607861      3.546806
     1   0 0 1     -0.062283      5.310769      5.310769    -10.683821

     2   2 0 0    -20.050188    -54.415925    -54.415925     88.781663
     2   1 1 0     -1.092711     13.912825     13.912825    -28.918360
     2   1 0 1      0.144100     26.499034     26.499034    -52.853967
     2   0 2 0    -17.848449    -40.527253    -40.527253     63.206057
     2   0 1 1      0.250515    -15.424597    -15.424597     31.099708

 Total times  cpu:      452.7s     wall:      461.6s
