============================== echo of input deck ==============================
echo
start methyloxirane_blyp-def2-tzvp_488.9_48.inp
title "methyloxirane roa calculations at 488.9 nm, input generated in va  with delta_type=2"
charge 0

geometry units angstrom nocenter noautoz noautosym nucleus point;symmetry c1
 O -0.879109 -0.180289  0.205216
 C  0.574310 -0.157765  0.122819
 C -0.185371  1.088006  0.343076
 C  1.185495 -0.520484 -1.211353
 H  1.057300 -0.602421  0.995729
 H -0.226918  1.529489  1.316235
 H -0.328259  1.795226 -0.508602
 H  2.241283 -0.216209 -1.245689
 H  1.142500 -1.605807 -1.374253
 H  0.651222 -0.026742 -2.034303
end

basis spherical
* library def2-TZVP
end

 set prop:newaoresp 1
 set aor:roadata T
 set cphf:maxsub 100
 set cphf:acc 1.0d-10
 set cphf:maxiter 100

property
    response 1   0.093196
    bdtensor
    convergence 1e-7
    damping 0.0037
    giao
end

dft
 direct
 mult 1
 xc becke88 lyp
 iterations 250
 tolerances tight
 grid xfine
 convergence nolevelshifting
 convergence energy 1e-8
 convergence gradient 1e-7

end

task dft gradient
task dft property
================================================================================

 Output coordinates in angstroms (scale by  1.889725989 to convert to a.u.)

  No.       Tag          Charge          X              Y              Z
 ---- ---------------- ---------- -------------- -------------- --------------
    1 O                    8.0000    -0.87910900    -0.18028900     0.20521600
    2 C                    6.0000     0.57431000    -0.15776500     0.12281900
    3 C                    6.0000    -0.18537100     1.08800600     0.34307600
    4 C                    6.0000     1.18549500    -0.52048400    -1.21135300
    5 H                    1.0000     1.05730000    -0.60242100     0.99572900
    6 H                    1.0000    -0.22691800     1.52948900     1.31623500
    7 H                    1.0000    -0.32825900     1.79522600    -0.50860200
    8 H                    1.0000     2.24128300    -0.21620900    -1.24568900
    9 H                    1.0000     1.14250000    -1.60580700    -1.37425300
   10 H                    1.0000     0.65122200    -0.02674200    -2.03430300

         Total DFT energy =     -193.108683315245
         Total DFT energy =     -193.108683315268

                       DFT Final Molecular Orbital Analysis
                       ------------------------------------

 Vector    1  Occ=2.000000D+00  E=-1.877967D+01

 Vector   81  Occ=0.000000D+00  E= 1.869433D+00

 Vector   82  Occ=0.000000D+00  E= 1.920634D+00

 Vector   83  Occ=0.000000D+00  E= 1.990800D+00

 Vector   84  Occ=0.000000D+00  E= 1.993548D+00

 Vector   85  Occ=0.000000D+00  E= 2.088180D+00

 Vector   86  Occ=0.000000D+00  E= 2.100023D+00

 Vector   87  Occ=0.000000D+00  E= 2.162782D+00

 Vector   88  Occ=0.000000D+00  E= 2.200907D+00

 Vector   89  Occ=0.000000D+00  E= 2.232102D+00

 Vector   90  Occ=0.000000D+00  E= 2.245591D+00

 Vector   91  Occ=0.000000D+00  E= 2.266464D+00

 Vector   92  Occ=0.000000D+00  E= 2.283778D+00

 Vector   93  Occ=0.000000D+00  E= 2.348046D+00

 Vector   94  Occ=0.000000D+00  E= 2.389069D+00

 Vector   95  Occ=0.000000D+00  E= 2.450397D+00

 Vector   96  Occ=0.000000D+00  E= 2.472599D+00

 Vector   97  Occ=0.000000D+00  E= 2.483093D+00

 Vector   98  Occ=0.000000D+00  E= 2.532081D+00

 Vector   99  Occ=0.000000D+00  E= 2.536734D+00

 Vector  100  Occ=0.000000D+00  E= 2.555614D+00

 Vector  101  Occ=0.000000D+00  E= 2.601481D+00

 Vector  102  Occ=0.000000D+00  E= 2.650187D+00

 Vector  103  Occ=0.000000D+00  E= 2.668147D+00

 Vector  104  Occ=0.000000D+00  E= 2.717393D+00

 Vector  105  Occ=0.000000D+00  E= 2.739945D+00

 Vector  106  Occ=0.000000D+00  E= 2.807475D+00

 Vector  107  Occ=0.000000D+00  E= 2.833368D+00

 Vector  108  Occ=0.000000D+00  E= 2.861835D+00

 Vector  109  Occ=0.000000D+00  E= 2.899537D+00

 Vector  110  Occ=0.000000D+00  E= 2.962592D+00

 Vector  111  Occ=0.000000D+00  E= 2.966550D+00

 Vector  112  Occ=0.000000D+00  E= 2.988430D+00

 Vector  113  Occ=0.000000D+00  E= 3.007025D+00

 Vector  114  Occ=0.000000D+00  E= 3.032699D+00

 Vector  115  Occ=0.000000D+00  E= 3.068278D+00

 Vector  116  Occ=0.000000D+00  E= 3.147729D+00

 Vector  117  Occ=0.000000D+00  E= 3.170888D+00

 Vector  118  Occ=0.000000D+00  E= 3.188975D+00

 Vector  119  Occ=0.000000D+00  E= 3.278944D+00

 Vector  120  Occ=0.000000D+00  E= 3.290095D+00

 Vector  121  Occ=0.000000D+00  E= 3.318570D+00

 Vector  122  Occ=0.000000D+00  E= 3.345924D+00

 Vector  123  Occ=0.000000D+00  E= 3.372523D+00

 Vector  124  Occ=0.000000D+00  E= 3.433413D+00

 Vector  125  Occ=0.000000D+00  E= 3.457283D+00

 Vector  126  Occ=0.000000D+00  E= 3.561404D+00

 Vector  127  Occ=0.000000D+00  E= 3.576891D+00

 Vector  128  Occ=0.000000D+00  E= 3.636957D+00

 Vector  129  Occ=0.000000D+00  E= 3.767509D+00

 Vector  130  Occ=0.000000D+00  E= 3.786096D+00

 Vector  131  Occ=0.000000D+00  E= 3.881198D+00

 Vector  132  Occ=0.000000D+00  E= 3.903337D+00

 Vector  133  Occ=0.000000D+00  E= 3.985532D+00

 Vector  134  Occ=0.000000D+00  E= 4.046142D+00

 Vector  135  Occ=0.000000D+00  E= 4.146836D+00

 Vector  136  Occ=0.000000D+00  E= 4.197006D+00

 Vector  137  Occ=0.000000D+00  E= 4.260029D+00

 Vector  138  Occ=0.000000D+00  E= 4.289066D+00

 Vector  139  Occ=0.000000D+00  E= 4.336865D+00

 Vector  140  Occ=0.000000D+00  E= 4.465104D+00

 Vector  141  Occ=0.000000D+00  E= 4.570036D+00

 Vector  142  Occ=0.000000D+00  E= 4.575358D+00

 Vector  143  Occ=0.000000D+00  E= 4.738310D+00

 Vector  144  Occ=0.000000D+00  E= 4.772365D+00

 Vector  145  Occ=0.000000D+00  E= 5.181805D+00

 Vector  146  Occ=0.000000D+00  E= 5.346893D+00

 Vector  147  Occ=0.000000D+00  E= 5.579184D+00

 Vector  148  Occ=0.000000D+00  E= 5.602983D+00

 Vector  149  Occ=0.000000D+00  E= 5.667497D+00

 Vector  150  Occ=0.000000D+00  E= 5.763795D+00

 Vector  151  Occ=0.000000D+00  E= 5.909158D+00

 Vector  152  Occ=0.000000D+00  E= 6.464709D+00

 Vector  153  Occ=0.000000D+00  E= 6.507369D+00

 Vector  154  Occ=0.000000D+00  E= 6.676220D+00

 Vector  155  Occ=0.000000D+00  E= 6.842208D+00

 Vector  156  Occ=0.000000D+00  E= 7.055816D+00

 Vector  157  Occ=0.000000D+00  E= 2.194272D+01

 Vector  158  Occ=0.000000D+00  E= 2.198378D+01

 Vector  159  Occ=0.000000D+00  E= 2.210517D+01

 Vector  160  Occ=0.000000D+00  E= 4.341402D+01

     Multipole analysis of the density
     ---------------------------------

     L   x y z        total         alpha         beta         nuclear
     -   - - -        -----         -----         ----         -------
     0   0 0 0     -0.000000    -16.000000    -16.000000     32.000000

     1   1 0 0      0.691649     -6.221786     -6.221786     13.135221
     1   0 1 0      0.324011     -1.623564     -1.623564      3.571140
     1   0 0 1     -0.046133      5.345553      5.345553    -10.737240

     2   2 0 0    -20.023753    -54.346805    -54.346805     88.669858
     2   1 1 0     -1.109346     13.904432     13.904432    -28.918210
     2   1 0 1      0.153351     26.473420     26.473420    -52.793489
     2   0 2 0    -17.846586    -40.506674    -40.506674     63.166761
     2   0 1 1      0.280871    -15.288501    -15.288501     30.857873

 Total times  cpu:      686.6s     wall:      702.4s
