============================== echo of input deck ==============================
echo
start methyloxirane_blyp-def2-tzvp_488.9_41.inp
title "methyloxirane roa calculations at 488.9 nm, input generated in va  with delta_type=2"
charge 0

geometry units angstrom nocenter noautoz noautosym nucleus point;symmetry c1
 O -0.879282 -0.180472  0.205225
 C  0.575306 -0.158303  0.122422
 C -0.185558  1.088427  0.340171
 C  1.186493 -0.520364 -1.210392
 H  1.056275 -0.602611  1.000866
 H -0.228266  1.541026  1.334499
 H -0.325525  1.784844 -0.491243
 H  2.238301 -0.202377 -1.241934
 H  1.123569 -1.603773 -1.383500
 H  0.653980 -0.040714 -2.041865
end

basis spherical
* library def2-TZVP
end

 set prop:newaoresp 1
 set aor:roadata T
 set cphf:maxsub 100
 set cphf:acc 1.0d-10
 set cphf:maxiter 100

property
    response 1   0.093196
    bdtensor
    convergence 1e-7
    damping 0.0037
    giao
end

dft
 direct
 mult 1
 xc becke88 lyp
 iterations 250
 tolerances tight
 grid xfine
 convergence nolevelshifting
 convergence energy 1e-8
 convergence gradient 1e-7

end

task dft gradient
task dft property
================================================================================

 Output coordinates in angstroms (scale by  1.889725989 to convert to a.u.)

  No.       Tag          Charge          X              Y              Z
 ---- ---------------- ---------- -------------- -------------- --------------
    1 O                    8.0000    -0.87928200    -0.18047200     0.20522500
    2 C                    6.0000     0.57530600    -0.15830300     0.12242200
    3 C                    6.0000    -0.18555800     1.08842700     0.34017100
    4 C                    6.0000     1.18649300    -0.52036400    -1.21039200
    5 H                    1.0000     1.05627500    -0.60261100     1.00086600
    6 H                    1.0000    -0.22826600     1.54102600     1.33449900
    7 H                    1.0000    -0.32552500     1.78484400    -0.49124300
    8 H                    1.0000     2.23830100    -0.20237700    -1.24193400
    9 H                    1.0000     1.12356900    -1.60377300    -1.38350000
   10 H                    1.0000     0.65398000    -0.04071400    -2.04186500

         Total DFT energy =     -193.109171452239
         Total DFT energy =     -193.109171452448

                       DFT Final Molecular Orbital Analysis
                       ------------------------------------

 Vector    1  Occ=2.000000D+00  E=-1.877965D+01

 Vector   81  Occ=0.000000D+00  E= 1.869527D+00

 Vector   82  Occ=0.000000D+00  E= 1.921134D+00

 Vector   83  Occ=0.000000D+00  E= 1.989412D+00

 Vector   84  Occ=0.000000D+00  E= 1.991316D+00

 Vector   85  Occ=0.000000D+00  E= 2.090663D+00

 Vector   86  Occ=0.000000D+00  E= 2.097657D+00

 Vector   87  Occ=0.000000D+00  E= 2.165141D+00

 Vector   88  Occ=0.000000D+00  E= 2.199738D+00

 Vector   89  Occ=0.000000D+00  E= 2.224230D+00

 Vector   90  Occ=0.000000D+00  E= 2.243504D+00

 Vector   91  Occ=0.000000D+00  E= 2.270890D+00

 Vector   92  Occ=0.000000D+00  E= 2.281201D+00

 Vector   93  Occ=0.000000D+00  E= 2.348856D+00

 Vector   94  Occ=0.000000D+00  E= 2.389196D+00

 Vector   95  Occ=0.000000D+00  E= 2.452520D+00

 Vector   96  Occ=0.000000D+00  E= 2.470418D+00

 Vector   97  Occ=0.000000D+00  E= 2.483917D+00

 Vector   98  Occ=0.000000D+00  E= 2.524961D+00

 Vector   99  Occ=0.000000D+00  E= 2.533661D+00

 Vector  100  Occ=0.000000D+00  E= 2.556323D+00

 Vector  101  Occ=0.000000D+00  E= 2.599700D+00

 Vector  102  Occ=0.000000D+00  E= 2.649223D+00

 Vector  103  Occ=0.000000D+00  E= 2.667526D+00

 Vector  104  Occ=0.000000D+00  E= 2.717131D+00

 Vector  105  Occ=0.000000D+00  E= 2.742350D+00

 Vector  106  Occ=0.000000D+00  E= 2.806461D+00

 Vector  107  Occ=0.000000D+00  E= 2.831586D+00

 Vector  108  Occ=0.000000D+00  E= 2.862161D+00

 Vector  109  Occ=0.000000D+00  E= 2.900754D+00

 Vector  110  Occ=0.000000D+00  E= 2.960110D+00

 Vector  111  Occ=0.000000D+00  E= 2.966044D+00

 Vector  112  Occ=0.000000D+00  E= 2.984472D+00

 Vector  113  Occ=0.000000D+00  E= 3.002234D+00

 Vector  114  Occ=0.000000D+00  E= 3.038611D+00

 Vector  115  Occ=0.000000D+00  E= 3.069661D+00

 Vector  116  Occ=0.000000D+00  E= 3.146282D+00

 Vector  117  Occ=0.000000D+00  E= 3.166525D+00

 Vector  118  Occ=0.000000D+00  E= 3.189570D+00

 Vector  119  Occ=0.000000D+00  E= 3.274528D+00

 Vector  120  Occ=0.000000D+00  E= 3.290233D+00

 Vector  121  Occ=0.000000D+00  E= 3.319815D+00

 Vector  122  Occ=0.000000D+00  E= 3.356641D+00

 Vector  123  Occ=0.000000D+00  E= 3.371423D+00

 Vector  124  Occ=0.000000D+00  E= 3.430737D+00

 Vector  125  Occ=0.000000D+00  E= 3.453942D+00

 Vector  126  Occ=0.000000D+00  E= 3.565224D+00

 Vector  127  Occ=0.000000D+00  E= 3.572771D+00

 Vector  128  Occ=0.000000D+00  E= 3.636499D+00

 Vector  129  Occ=0.000000D+00  E= 3.767399D+00

 Vector  130  Occ=0.000000D+00  E= 3.781616D+00

 Vector  131  Occ=0.000000D+00  E= 3.877379D+00

 Vector  132  Occ=0.000000D+00  E= 3.897557D+00

 Vector  133  Occ=0.000000D+00  E= 3.985057D+00

 Vector  134  Occ=0.000000D+00  E= 4.051312D+00

 Vector  135  Occ=0.000000D+00  E= 4.158406D+00

 Vector  136  Occ=0.000000D+00  E= 4.203236D+00

 Vector  137  Occ=0.000000D+00  E= 4.255526D+00

 Vector  138  Occ=0.000000D+00  E= 4.278718D+00

 Vector  139  Occ=0.000000D+00  E= 4.338961D+00

 Vector  140  Occ=0.000000D+00  E= 4.463063D+00

 Vector  141  Occ=0.000000D+00  E= 4.562611D+00

 Vector  142  Occ=0.000000D+00  E= 4.571975D+00

 Vector  143  Occ=0.000000D+00  E= 4.738426D+00

 Vector  144  Occ=0.000000D+00  E= 4.771339D+00

 Vector  145  Occ=0.000000D+00  E= 5.181687D+00

 Vector  146  Occ=0.000000D+00  E= 5.346252D+00

 Vector  147  Occ=0.000000D+00  E= 5.577116D+00

 Vector  148  Occ=0.000000D+00  E= 5.603285D+00

 Vector  149  Occ=0.000000D+00  E= 5.666382D+00

 Vector  150  Occ=0.000000D+00  E= 5.762395D+00

 Vector  151  Occ=0.000000D+00  E= 5.908044D+00

 Vector  152  Occ=0.000000D+00  E= 6.464558D+00

 Vector  153  Occ=0.000000D+00  E= 6.506559D+00

 Vector  154  Occ=0.000000D+00  E= 6.675997D+00

 Vector  155  Occ=0.000000D+00  E= 6.841934D+00

 Vector  156  Occ=0.000000D+00  E= 7.055901D+00

 Vector  157  Occ=0.000000D+00  E= 2.194009D+01

 Vector  158  Occ=0.000000D+00  E= 2.198072D+01

 Vector  159  Occ=0.000000D+00  E= 2.209963D+01

 Vector  160  Occ=0.000000D+00  E= 4.341274D+01

     Multipole analysis of the density
     ---------------------------------

     L   x y z        total         alpha         beta         nuclear
     -   - - -        -----         -----         ----         -------
     0   0 0 0     -0.000000    -16.000000    -16.000000     32.000000

     1   1 0 0      0.687503     -6.215037     -6.215037     13.117578
     1   0 1 0      0.326601     -1.623605     -1.623605      3.573810
     1   0 0 1     -0.060617      5.325337      5.325337    -10.711290

     2   2 0 0    -20.049762    -54.302540    -54.302540     88.555318
     2   1 1 0     -1.061871     13.831978     13.831978    -28.725826
     2   1 0 1      0.163702     26.460626     26.460626    -52.757550
     2   0 2 0    -17.846507    -40.494861    -40.494861     63.143215
     2   0 1 1      0.269595    -15.431223    -15.431223     31.132042

 Total times  cpu:      697.3s     wall:      715.1s
