============================== echo of input deck ==============================
echo
start methyloxirane_blyp-def2-tzvp_488.9_31.inp
title "methyloxirane roa calculations at 488.9 nm, input generated in va  with delta_type=2"
charge 0

geometry units angstrom nocenter noautoz noautosym nucleus point;symmetry c1
 O -0.882622 -0.184300  0.204808
 C  0.571809 -0.157188  0.126241
 C -0.182496  1.093962  0.340539
 C  1.190807 -0.523253 -1.214236
 H  1.053330 -0.590845  1.010077
 H -0.222727  1.538849  1.338110
 H -0.333364  1.788932 -0.489505
 H  2.245449 -0.216541 -1.266551
 H  1.140299 -1.606474 -1.390981
 H  0.642195 -0.021558 -2.021803
end

basis spherical
* library def2-TZVP
end

 set prop:newaoresp 1
 set aor:roadata T
 set cphf:maxsub 100
 set cphf:acc 1.0d-10
 set cphf:maxiter 100

property
    response 1   0.093196
    bdtensor
    convergence 1e-7
    damping 0.0037
    giao
end

dft
 direct
 mult 1
 xc becke88 lyp
 iterations 250
 tolerances tight
 grid xfine
 convergence nolevelshifting
 convergence energy 1e-8
 convergence gradient 1e-7

end

task dft gradient
task dft property
================================================================================

 Output coordinates in angstroms (scale by  1.889725989 to convert to a.u.)

  No.       Tag          Charge          X              Y              Z
 ---- ---------------- ---------- -------------- -------------- --------------
    1 O                    8.0000    -0.88262200    -0.18430000     0.20480800
    2 C                    6.0000     0.57180900    -0.15718800     0.12624100
    3 C                    6.0000    -0.18249600     1.09396200     0.34053900
    4 C                    6.0000     1.19080700    -0.52325300    -1.21423600
    5 H                    1.0000     1.05333000    -0.59084500     1.01007700
    6 H                    1.0000    -0.22272700     1.53884900     1.33811000
    7 H                    1.0000    -0.33336400     1.78893200    -0.48950500
    8 H                    1.0000     2.24544900    -0.21654100    -1.26655100
    9 H                    1.0000     1.14029900    -1.60647400    -1.39098100
   10 H                    1.0000     0.64219500    -0.02155800    -2.02180300

         Total DFT energy =     -193.109131183132
         Total DFT energy =     -193.109131183623

                       DFT Final Molecular Orbital Analysis
                       ------------------------------------

 Vector    1  Occ=2.000000D+00  E=-1.878002D+01

 Vector   81  Occ=0.000000D+00  E= 1.867924D+00

 Vector   82  Occ=0.000000D+00  E= 1.919768D+00

 Vector   83  Occ=0.000000D+00  E= 1.985925D+00

 Vector   84  Occ=0.000000D+00  E= 1.992120D+00

 Vector   85  Occ=0.000000D+00  E= 2.089108D+00

 Vector   86  Occ=0.000000D+00  E= 2.098498D+00

 Vector   87  Occ=0.000000D+00  E= 2.160185D+00

 Vector   88  Occ=0.000000D+00  E= 2.195751D+00

 Vector   89  Occ=0.000000D+00  E= 2.223111D+00

 Vector   90  Occ=0.000000D+00  E= 2.244362D+00

 Vector   91  Occ=0.000000D+00  E= 2.267086D+00

 Vector   92  Occ=0.000000D+00  E= 2.280023D+00

 Vector   93  Occ=0.000000D+00  E= 2.351150D+00

 Vector   94  Occ=0.000000D+00  E= 2.376719D+00

 Vector   95  Occ=0.000000D+00  E= 2.447355D+00

 Vector   96  Occ=0.000000D+00  E= 2.473112D+00

 Vector   97  Occ=0.000000D+00  E= 2.484478D+00

 Vector   98  Occ=0.000000D+00  E= 2.524899D+00

 Vector   99  Occ=0.000000D+00  E= 2.527872D+00

 Vector  100  Occ=0.000000D+00  E= 2.563318D+00

 Vector  101  Occ=0.000000D+00  E= 2.594404D+00

 Vector  102  Occ=0.000000D+00  E= 2.648635D+00

 Vector  103  Occ=0.000000D+00  E= 2.661017D+00

 Vector  104  Occ=0.000000D+00  E= 2.711264D+00

 Vector  105  Occ=0.000000D+00  E= 2.734958D+00

 Vector  106  Occ=0.000000D+00  E= 2.797995D+00

 Vector  107  Occ=0.000000D+00  E= 2.831507D+00

 Vector  108  Occ=0.000000D+00  E= 2.862656D+00

 Vector  109  Occ=0.000000D+00  E= 2.896885D+00

 Vector  110  Occ=0.000000D+00  E= 2.962388D+00

 Vector  111  Occ=0.000000D+00  E= 2.965040D+00

 Vector  112  Occ=0.000000D+00  E= 2.986917D+00

 Vector  113  Occ=0.000000D+00  E= 3.009172D+00

 Vector  114  Occ=0.000000D+00  E= 3.033196D+00

 Vector  115  Occ=0.000000D+00  E= 3.068199D+00

 Vector  116  Occ=0.000000D+00  E= 3.149269D+00

 Vector  117  Occ=0.000000D+00  E= 3.168648D+00

 Vector  118  Occ=0.000000D+00  E= 3.189206D+00

 Vector  119  Occ=0.000000D+00  E= 3.273739D+00

 Vector  120  Occ=0.000000D+00  E= 3.282975D+00

 Vector  121  Occ=0.000000D+00  E= 3.315525D+00

 Vector  122  Occ=0.000000D+00  E= 3.349328D+00

 Vector  123  Occ=0.000000D+00  E= 3.367864D+00

 Vector  124  Occ=0.000000D+00  E= 3.427597D+00

 Vector  125  Occ=0.000000D+00  E= 3.451532D+00

 Vector  126  Occ=0.000000D+00  E= 3.558410D+00

 Vector  127  Occ=0.000000D+00  E= 3.565871D+00

 Vector  128  Occ=0.000000D+00  E= 3.629144D+00

 Vector  129  Occ=0.000000D+00  E= 3.764161D+00

 Vector  130  Occ=0.000000D+00  E= 3.779849D+00

 Vector  131  Occ=0.000000D+00  E= 3.881578D+00

 Vector  132  Occ=0.000000D+00  E= 3.893822D+00

 Vector  133  Occ=0.000000D+00  E= 3.980896D+00

 Vector  134  Occ=0.000000D+00  E= 4.045099D+00

 Vector  135  Occ=0.000000D+00  E= 4.142452D+00

 Vector  136  Occ=0.000000D+00  E= 4.190827D+00

 Vector  137  Occ=0.000000D+00  E= 4.247152D+00

 Vector  138  Occ=0.000000D+00  E= 4.276937D+00

 Vector  139  Occ=0.000000D+00  E= 4.330407D+00

 Vector  140  Occ=0.000000D+00  E= 4.463352D+00

 Vector  141  Occ=0.000000D+00  E= 4.560384D+00

 Vector  142  Occ=0.000000D+00  E= 4.571758D+00

 Vector  143  Occ=0.000000D+00  E= 4.731600D+00

 Vector  144  Occ=0.000000D+00  E= 4.772510D+00

 Vector  145  Occ=0.000000D+00  E= 5.177344D+00

 Vector  146  Occ=0.000000D+00  E= 5.340011D+00

 Vector  147  Occ=0.000000D+00  E= 5.562197D+00

 Vector  148  Occ=0.000000D+00  E= 5.595084D+00

 Vector  149  Occ=0.000000D+00  E= 5.661238D+00

 Vector  150  Occ=0.000000D+00  E= 5.750870D+00

 Vector  151  Occ=0.000000D+00  E= 5.899876D+00

 Vector  152  Occ=0.000000D+00  E= 6.459364D+00

 Vector  153  Occ=0.000000D+00  E= 6.499968D+00

 Vector  154  Occ=0.000000D+00  E= 6.673199D+00

 Vector  155  Occ=0.000000D+00  E= 6.840287D+00

 Vector  156  Occ=0.000000D+00  E= 7.054612D+00

 Vector  157  Occ=0.000000D+00  E= 2.192429D+01

 Vector  158  Occ=0.000000D+00  E= 2.197850D+01

 Vector  159  Occ=0.000000D+00  E= 2.208365D+01

 Vector  160  Occ=0.000000D+00  E= 4.340803D+01

     Multipole analysis of the density
     ---------------------------------

     L   x y z        total         alpha         beta         nuclear
     -   - - -        -----         -----         ----         -------
     0   0 0 0     -0.000000    -16.000000    -16.000000     32.000000

     1   1 0 0      0.692795     -6.215606     -6.215606     13.124007
     1   0 1 0      0.337460     -1.625649     -1.625649      3.588758
     1   0 0 1     -0.054865      5.327035      5.327035    -10.708935

     2   2 0 0    -20.045167    -54.530370    -54.530370     89.015574
     2   1 1 0     -1.107460     13.851539     13.851539    -28.810539
     2   1 0 1      0.149246     26.609137     26.609137    -53.069028
     2   0 2 0    -17.812956    -40.668961    -40.668961     63.524966
     2   0 1 1      0.271883    -15.514937    -15.514937     31.301757

 Total times  cpu:      606.8s     wall:      620.4s
