============================== echo of input deck ==============================
echo
start methyloxirane_blyp-def2-tzvp_488.9_02.inp
title "methyloxirane roa calculations at 488.9 nm, input generated in va  with delta_type=2"
charge 0

geometry units angstrom nocenter noautoz noautosym nucleus point;symmetry c1
 O -0.882823 -0.179931  0.212098
 C  0.570637 -0.164629  0.123658
 C -0.181363  1.086550  0.332474
 C  1.187404 -0.514559 -1.211452
 H  1.055677 -0.610015  0.999018
 H -0.220446  1.548688  1.322235
 H -0.317653  1.771195 -0.509357
 H  2.242697 -0.205194 -1.233484
 H  1.150129 -1.597883 -1.390959
 H  0.658945 -0.010439 -2.030161
end

basis spherical
* library def2-TZVP
end

 set prop:newaoresp 1
 set aor:roadata T
 set cphf:maxsub 100
 set cphf:acc 1.0d-10
 set cphf:maxiter 100

property
    response 1   0.093196
    bdtensor
    convergence 1e-7
    damping 0.0037
    giao
end

dft
 direct
 mult 1
 xc becke88 lyp
 iterations 250
 tolerances tight
 grid xfine
 convergence nolevelshifting
 convergence energy 1e-8
 convergence gradient 1e-7

end

task dft gradient
task dft property
================================================================================

 Output coordinates in angstroms (scale by  1.889725989 to convert to a.u.)

  No.       Tag          Charge          X              Y              Z
 ---- ---------------- ---------- -------------- -------------- --------------
    1 O                    8.0000    -0.88282300    -0.17993100     0.21209800
    2 C                    6.0000     0.57063700    -0.16462900     0.12365800
    3 C                    6.0000    -0.18136300     1.08655000     0.33247400
    4 C                    6.0000     1.18740400    -0.51455900    -1.21145200
    5 H                    1.0000     1.05567700    -0.61001500     0.99901800
    6 H                    1.0000    -0.22044600     1.54868800     1.32223500
    7 H                    1.0000    -0.31765300     1.77119500    -0.50935700
    8 H                    1.0000     2.24269700    -0.20519400    -1.23348400
    9 H                    1.0000     1.15012900    -1.59788300    -1.39095900
   10 H                    1.0000     0.65894500    -0.01043900    -2.03016100

         Total DFT energy =     -193.109273982086
         Total DFT energy =     -193.109273982400

                       DFT Final Molecular Orbital Analysis
                       ------------------------------------

 Vector    1  Occ=2.000000D+00  E=-1.877993D+01

 Vector   81  Occ=0.000000D+00  E= 1.867475D+00

 Vector   82  Occ=0.000000D+00  E= 1.922429D+00

 Vector   83  Occ=0.000000D+00  E= 1.992065D+00

 Vector   84  Occ=0.000000D+00  E= 1.996226D+00

 Vector   85  Occ=0.000000D+00  E= 2.088311D+00

 Vector   86  Occ=0.000000D+00  E= 2.097690D+00

 Vector   87  Occ=0.000000D+00  E= 2.166948D+00

 Vector   88  Occ=0.000000D+00  E= 2.197462D+00

 Vector   89  Occ=0.000000D+00  E= 2.227653D+00

 Vector   90  Occ=0.000000D+00  E= 2.242729D+00

 Vector   91  Occ=0.000000D+00  E= 2.266101D+00

 Vector   92  Occ=0.000000D+00  E= 2.283647D+00

 Vector   93  Occ=0.000000D+00  E= 2.351904D+00

 Vector   94  Occ=0.000000D+00  E= 2.385920D+00

 Vector   95  Occ=0.000000D+00  E= 2.450705D+00

 Vector   96  Occ=0.000000D+00  E= 2.474666D+00

 Vector   97  Occ=0.000000D+00  E= 2.483711D+00

 Vector   98  Occ=0.000000D+00  E= 2.523654D+00

 Vector   99  Occ=0.000000D+00  E= 2.531798D+00

 Vector  100  Occ=0.000000D+00  E= 2.561149D+00

 Vector  101  Occ=0.000000D+00  E= 2.599370D+00

 Vector  102  Occ=0.000000D+00  E= 2.646035D+00

 Vector  103  Occ=0.000000D+00  E= 2.667773D+00

 Vector  104  Occ=0.000000D+00  E= 2.716347D+00

 Vector  105  Occ=0.000000D+00  E= 2.736651D+00

 Vector  106  Occ=0.000000D+00  E= 2.801915D+00

 Vector  107  Occ=0.000000D+00  E= 2.833164D+00

 Vector  108  Occ=0.000000D+00  E= 2.863221D+00

 Vector  109  Occ=0.000000D+00  E= 2.897548D+00

 Vector  110  Occ=0.000000D+00  E= 2.960630D+00

 Vector  111  Occ=0.000000D+00  E= 2.963660D+00

 Vector  112  Occ=0.000000D+00  E= 2.987806D+00

 Vector  113  Occ=0.000000D+00  E= 3.007218D+00

 Vector  114  Occ=0.000000D+00  E= 3.036598D+00

 Vector  115  Occ=0.000000D+00  E= 3.071213D+00

 Vector  116  Occ=0.000000D+00  E= 3.147326D+00

 Vector  117  Occ=0.000000D+00  E= 3.163226D+00

 Vector  118  Occ=0.000000D+00  E= 3.193445D+00

 Vector  119  Occ=0.000000D+00  E= 3.279447D+00

 Vector  120  Occ=0.000000D+00  E= 3.290698D+00

 Vector  121  Occ=0.000000D+00  E= 3.316051D+00

 Vector  122  Occ=0.000000D+00  E= 3.356627D+00

 Vector  123  Occ=0.000000D+00  E= 3.371244D+00

 Vector  124  Occ=0.000000D+00  E= 3.430334D+00

 Vector  125  Occ=0.000000D+00  E= 3.457614D+00

 Vector  126  Occ=0.000000D+00  E= 3.560879D+00

 Vector  127  Occ=0.000000D+00  E= 3.575517D+00

 Vector  128  Occ=0.000000D+00  E= 3.640081D+00

 Vector  129  Occ=0.000000D+00  E= 3.771199D+00

 Vector  130  Occ=0.000000D+00  E= 3.788957D+00

 Vector  131  Occ=0.000000D+00  E= 3.876240D+00

 Vector  132  Occ=0.000000D+00  E= 3.898484D+00

 Vector  133  Occ=0.000000D+00  E= 3.989853D+00

 Vector  134  Occ=0.000000D+00  E= 4.048018D+00

 Vector  135  Occ=0.000000D+00  E= 4.144576D+00

 Vector  136  Occ=0.000000D+00  E= 4.193739D+00

 Vector  137  Occ=0.000000D+00  E= 4.259569D+00

 Vector  138  Occ=0.000000D+00  E= 4.290200D+00

 Vector  139  Occ=0.000000D+00  E= 4.338278D+00

 Vector  140  Occ=0.000000D+00  E= 4.470207D+00

 Vector  141  Occ=0.000000D+00  E= 4.558099D+00

 Vector  142  Occ=0.000000D+00  E= 4.573690D+00

 Vector  143  Occ=0.000000D+00  E= 4.736938D+00

 Vector  144  Occ=0.000000D+00  E= 4.766570D+00

 Vector  145  Occ=0.000000D+00  E= 5.180900D+00

 Vector  146  Occ=0.000000D+00  E= 5.345600D+00

 Vector  147  Occ=0.000000D+00  E= 5.577617D+00

 Vector  148  Occ=0.000000D+00  E= 5.602675D+00

 Vector  149  Occ=0.000000D+00  E= 5.667728D+00

 Vector  150  Occ=0.000000D+00  E= 5.763719D+00

 Vector  151  Occ=0.000000D+00  E= 5.907768D+00

 Vector  152  Occ=0.000000D+00  E= 6.464074D+00

 Vector  153  Occ=0.000000D+00  E= 6.505925D+00

 Vector  154  Occ=0.000000D+00  E= 6.677367D+00

 Vector  155  Occ=0.000000D+00  E= 6.841456D+00

 Vector  156  Occ=0.000000D+00  E= 7.054967D+00

 Vector  157  Occ=0.000000D+00  E= 2.194132D+01

 Vector  158  Occ=0.000000D+00  E= 2.197866D+01

 Vector  159  Occ=0.000000D+00  E= 2.210061D+01

 Vector  160  Occ=0.000000D+00  E= 4.341601D+01

     Multipole analysis of the density
     ---------------------------------

     L   x y z        total         alpha         beta         nuclear
     -   - - -        -----         -----         ----         -------
     0   0 0 0     -0.000000    -16.000000    -16.000000     32.000000

     1   1 0 0      0.696294     -6.234556     -6.234556     13.165405
     1   0 1 0      0.326130     -1.633191     -1.633191      3.592513
     1   0 0 1     -0.062794      5.333388      5.333388    -10.729569

     2   2 0 0    -20.032708    -54.469578    -54.469578     88.906448
     2   1 1 0     -1.097992     13.724590     13.724590    -28.547172
     2   1 0 1      0.166417     26.591550     26.591550    -53.016683
     2   0 2 0    -17.838179    -40.338951    -40.338951     62.839722
     2   0 1 1      0.240289    -15.080551    -15.080551     30.401391

 Total times  cpu:      617.1s     wall:      629.5s
