============================== echo of input deck ==============================
echo
start methyloxirane_blyp-def2-tzvp_488.9_25.inp
title "methyloxirane roa calculations at 488.9 nm, input generated in va  with delta_type=2"
charge 0

geometry units angstrom nocenter noautoz noautosym nucleus point;symmetry c1
 O -0.878129 -0.181504  0.206015
 C  0.575027 -0.156171  0.122498
 C -0.187081  1.088597  0.339509
 C  1.185228 -0.520514 -1.211541
 H  1.060610 -0.601029  0.998084
 H -0.230095  1.539058  1.334595
 H -0.328617  1.781704 -0.494282
 H  2.247170 -0.235456 -1.239186
 H  1.123085 -1.604478 -1.381324
 H  0.664412 -0.012646 -2.032928
end

basis spherical
* library def2-TZVP
end

 set prop:newaoresp 1
 set aor:roadata T
 set cphf:maxsub 100
 set cphf:acc 1.0d-10
 set cphf:maxiter 100

property
    response 1   0.093196
    bdtensor
    convergence 1e-7
    damping 0.0037
    giao
end

dft
 direct
 mult 1
 xc becke88 lyp
 iterations 250
 tolerances tight
 grid xfine
 convergence nolevelshifting
 convergence energy 1e-8
 convergence gradient 1e-7

end

task dft gradient
task dft property
================================================================================

 Output coordinates in angstroms (scale by  1.889725989 to convert to a.u.)

  No.       Tag          Charge          X              Y              Z
 ---- ---------------- ---------- -------------- -------------- --------------
    1 O                    8.0000    -0.87812900    -0.18150400     0.20601500
    2 C                    6.0000     0.57502700    -0.15617100     0.12249800
    3 C                    6.0000    -0.18708100     1.08859700     0.33950900
    4 C                    6.0000     1.18522800    -0.52051400    -1.21154100
    5 H                    1.0000     1.06061000    -0.60102900     0.99808400
    6 H                    1.0000    -0.23009500     1.53905800     1.33459500
    7 H                    1.0000    -0.32861700     1.78170400    -0.49428200
    8 H                    1.0000     2.24717000    -0.23545600    -1.23918600
    9 H                    1.0000     1.12308500    -1.60447800    -1.38132400
   10 H                    1.0000     0.66441200    -0.01264600    -2.03292800

         Total DFT energy =     -193.109313037963
         Total DFT energy =     -193.109313038077

                       DFT Final Molecular Orbital Analysis
                       ------------------------------------

 Vector    1  Occ=2.000000D+00  E=-1.877971D+01

 Vector   81  Occ=0.000000D+00  E= 1.866692D+00

 Vector   82  Occ=0.000000D+00  E= 1.920071D+00

 Vector   83  Occ=0.000000D+00  E= 1.991357D+00

 Vector   84  Occ=0.000000D+00  E= 1.995064D+00

 Vector   85  Occ=0.000000D+00  E= 2.089963D+00

 Vector   86  Occ=0.000000D+00  E= 2.096977D+00

 Vector   87  Occ=0.000000D+00  E= 2.165643D+00

 Vector   88  Occ=0.000000D+00  E= 2.199125D+00

 Vector   89  Occ=0.000000D+00  E= 2.227915D+00

 Vector   90  Occ=0.000000D+00  E= 2.244214D+00

 Vector   91  Occ=0.000000D+00  E= 2.266288D+00

 Vector   92  Occ=0.000000D+00  E= 2.284572D+00

 Vector   93  Occ=0.000000D+00  E= 2.351707D+00

 Vector   94  Occ=0.000000D+00  E= 2.386283D+00

 Vector   95  Occ=0.000000D+00  E= 2.451557D+00

 Vector   96  Occ=0.000000D+00  E= 2.473850D+00

 Vector   97  Occ=0.000000D+00  E= 2.483594D+00

 Vector   98  Occ=0.000000D+00  E= 2.524584D+00

 Vector   99  Occ=0.000000D+00  E= 2.532621D+00

 Vector  100  Occ=0.000000D+00  E= 2.560493D+00

 Vector  101  Occ=0.000000D+00  E= 2.599884D+00

 Vector  102  Occ=0.000000D+00  E= 2.650335D+00

 Vector  103  Occ=0.000000D+00  E= 2.666472D+00

 Vector  104  Occ=0.000000D+00  E= 2.716313D+00

 Vector  105  Occ=0.000000D+00  E= 2.737692D+00

 Vector  106  Occ=0.000000D+00  E= 2.805830D+00

 Vector  107  Occ=0.000000D+00  E= 2.831664D+00

 Vector  108  Occ=0.000000D+00  E= 2.861575D+00

 Vector  109  Occ=0.000000D+00  E= 2.899826D+00

 Vector  110  Occ=0.000000D+00  E= 2.961612D+00

 Vector  111  Occ=0.000000D+00  E= 2.964615D+00

 Vector  112  Occ=0.000000D+00  E= 2.990141D+00

 Vector  113  Occ=0.000000D+00  E= 3.008326D+00

 Vector  114  Occ=0.000000D+00  E= 3.035448D+00

 Vector  115  Occ=0.000000D+00  E= 3.067315D+00

 Vector  116  Occ=0.000000D+00  E= 3.144237D+00

 Vector  117  Occ=0.000000D+00  E= 3.165953D+00

 Vector  118  Occ=0.000000D+00  E= 3.190195D+00

 Vector  119  Occ=0.000000D+00  E= 3.280723D+00

 Vector  120  Occ=0.000000D+00  E= 3.294497D+00

 Vector  121  Occ=0.000000D+00  E= 3.316300D+00

 Vector  122  Occ=0.000000D+00  E= 3.351992D+00

 Vector  123  Occ=0.000000D+00  E= 3.374500D+00

 Vector  124  Occ=0.000000D+00  E= 3.430180D+00

 Vector  125  Occ=0.000000D+00  E= 3.457871D+00

 Vector  126  Occ=0.000000D+00  E= 3.562814D+00

 Vector  127  Occ=0.000000D+00  E= 3.572370D+00

 Vector  128  Occ=0.000000D+00  E= 3.636636D+00

 Vector  129  Occ=0.000000D+00  E= 3.766131D+00

 Vector  130  Occ=0.000000D+00  E= 3.782587D+00

 Vector  131  Occ=0.000000D+00  E= 3.880667D+00

 Vector  132  Occ=0.000000D+00  E= 3.898501D+00

 Vector  133  Occ=0.000000D+00  E= 3.990065D+00

 Vector  134  Occ=0.000000D+00  E= 4.048282D+00

 Vector  135  Occ=0.000000D+00  E= 4.146987D+00

 Vector  136  Occ=0.000000D+00  E= 4.195302D+00

 Vector  137  Occ=0.000000D+00  E= 4.259976D+00

 Vector  138  Occ=0.000000D+00  E= 4.289735D+00

 Vector  139  Occ=0.000000D+00  E= 4.337403D+00

 Vector  140  Occ=0.000000D+00  E= 4.469704D+00

 Vector  141  Occ=0.000000D+00  E= 4.560376D+00

 Vector  142  Occ=0.000000D+00  E= 4.571964D+00

 Vector  143  Occ=0.000000D+00  E= 4.738320D+00

 Vector  144  Occ=0.000000D+00  E= 4.771514D+00

 Vector  145  Occ=0.000000D+00  E= 5.182114D+00

 Vector  146  Occ=0.000000D+00  E= 5.347059D+00

 Vector  147  Occ=0.000000D+00  E= 5.577664D+00

 Vector  148  Occ=0.000000D+00  E= 5.604096D+00

 Vector  149  Occ=0.000000D+00  E= 5.666774D+00

 Vector  150  Occ=0.000000D+00  E= 5.763543D+00

 Vector  151  Occ=0.000000D+00  E= 5.908961D+00

 Vector  152  Occ=0.000000D+00  E= 6.464874D+00

 Vector  153  Occ=0.000000D+00  E= 6.507352D+00

 Vector  154  Occ=0.000000D+00  E= 6.676316D+00

 Vector  155  Occ=0.000000D+00  E= 6.842082D+00

 Vector  156  Occ=0.000000D+00  E= 7.055684D+00

 Vector  157  Occ=0.000000D+00  E= 2.194078D+01

 Vector  158  Occ=0.000000D+00  E= 2.198110D+01

 Vector  159  Occ=0.000000D+00  E= 2.210109D+01

 Vector  160  Occ=0.000000D+00  E= 4.341378D+01

     Multipole analysis of the density
     ---------------------------------

     L   x y z        total         alpha         beta         nuclear
     -   - - -        -----         -----         ----         -------
     0   0 0 0     -0.000000    -16.000000    -16.000000     32.000000

     1   1 0 0      0.689200     -6.222743     -6.222743     13.134686
     1   0 1 0      0.326505     -1.619320     -1.619320      3.565144
     1   0 0 1     -0.057479      5.323082      5.323082    -10.703644

     2   2 0 0    -20.021662    -54.345187    -54.345187     88.668711
     2   1 1 0     -1.115744     13.911737     13.911737    -28.939218
     2   1 0 1      0.153334     26.492215     26.492215    -52.831097
     2   0 2 0    -17.839403    -40.488105    -40.488105     63.136806
     2   0 1 1      0.251509    -15.398760    -15.398760     31.049028

 Total times  cpu:      693.3s     wall:      711.8s
