============================== echo of input deck ==============================
echo
start methyloxirane_blyp-def2-tzvp_488.9_01.inp
title "methyloxirane roa calculations at 488.9 nm, input generated in va  with delta_type=2"
charge 0

geometry units angstrom nocenter noautoz noautosym nucleus point;symmetry c1
 O -0.880095 -0.179085  0.204500
 C  0.573372 -0.159121  0.122679
 C -0.183953  1.088110  0.340723
 C  1.185611 -0.520300 -1.211291
 H  1.056597 -0.606701  0.998155
 H -0.226009  1.537092  1.336504
 H -0.322076  1.783164 -0.492026
 H  2.236103 -0.196750 -1.252283
 H  1.161857 -1.607783 -1.367216
 H  0.639181 -0.041882 -2.033729
end

basis spherical
* library def2-TZVP
end

 set prop:newaoresp 1
 set aor:roadata T
 set cphf:maxsub 100
 set cphf:acc 1.0d-10
 set cphf:maxiter 100

property
    response 1   0.093196
    bdtensor
    convergence 1e-7
    damping 0.0037
    giao
end

dft
 direct
 mult 1
 xc becke88 lyp
 iterations 250
 tolerances tight
 grid xfine
 convergence nolevelshifting
 convergence energy 1e-8
 convergence gradient 1e-7

end

task dft gradient
task dft property
================================================================================

 Output coordinates in angstroms (scale by  1.889725989 to convert to a.u.)

  No.       Tag          Charge          X              Y              Z
 ---- ---------------- ---------- -------------- -------------- --------------
    1 O                    8.0000    -0.88009500    -0.17908500     0.20450000
    2 C                    6.0000     0.57337200    -0.15912100     0.12267900
    3 C                    6.0000    -0.18395300     1.08811000     0.34072300
    4 C                    6.0000     1.18561100    -0.52030000    -1.21129100
    5 H                    1.0000     1.05659700    -0.60670100     0.99815500
    6 H                    1.0000    -0.22600900     1.53709200     1.33650400
    7 H                    1.0000    -0.32207600     1.78316400    -0.49202600
    8 H                    1.0000     2.23610300    -0.19675000    -1.25228300
    9 H                    1.0000     1.16185700    -1.60778300    -1.36721600
   10 H                    1.0000     0.63918100    -0.04188200    -2.03372900

         Total DFT energy =     -193.109312940083
         Total DFT energy =     -193.109312940291

                       DFT Final Molecular Orbital Analysis
                       ------------------------------------

 Vector    1  Occ=2.000000D+00  E=-1.877972D+01

 Vector   81  Occ=0.000000D+00  E= 1.867854D+00

 Vector   82  Occ=0.000000D+00  E= 1.921632D+00

 Vector   83  Occ=0.000000D+00  E= 1.991120D+00

 Vector   84  Occ=0.000000D+00  E= 1.993847D+00

 Vector   85  Occ=0.000000D+00  E= 2.089270D+00

 Vector   86  Occ=0.000000D+00  E= 2.097305D+00

 Vector   87  Occ=0.000000D+00  E= 2.166841D+00

 Vector   88  Occ=0.000000D+00  E= 2.200488D+00

 Vector   89  Occ=0.000000D+00  E= 2.230447D+00

 Vector   90  Occ=0.000000D+00  E= 2.243101D+00

 Vector   91  Occ=0.000000D+00  E= 2.266722D+00

 Vector   92  Occ=0.000000D+00  E= 2.281607D+00

 Vector   93  Occ=0.000000D+00  E= 2.349544D+00

 Vector   94  Occ=0.000000D+00  E= 2.388431D+00

 Vector   95  Occ=0.000000D+00  E= 2.450123D+00

 Vector   96  Occ=0.000000D+00  E= 2.472806D+00

 Vector   97  Occ=0.000000D+00  E= 2.483143D+00

 Vector   98  Occ=0.000000D+00  E= 2.526342D+00

 Vector   99  Occ=0.000000D+00  E= 2.532522D+00

 Vector  100  Occ=0.000000D+00  E= 2.558688D+00

 Vector  101  Occ=0.000000D+00  E= 2.597667D+00

 Vector  102  Occ=0.000000D+00  E= 2.648487D+00

 Vector  103  Occ=0.000000D+00  E= 2.669612D+00

 Vector  104  Occ=0.000000D+00  E= 2.715835D+00

 Vector  105  Occ=0.000000D+00  E= 2.741599D+00

 Vector  106  Occ=0.000000D+00  E= 2.807366D+00

 Vector  107  Occ=0.000000D+00  E= 2.831607D+00

 Vector  108  Occ=0.000000D+00  E= 2.862347D+00

 Vector  109  Occ=0.000000D+00  E= 2.897824D+00

 Vector  110  Occ=0.000000D+00  E= 2.959483D+00

 Vector  111  Occ=0.000000D+00  E= 2.967324D+00

 Vector  112  Occ=0.000000D+00  E= 2.987031D+00

 Vector  113  Occ=0.000000D+00  E= 3.006948D+00

 Vector  114  Occ=0.000000D+00  E= 3.033804D+00

 Vector  115  Occ=0.000000D+00  E= 3.070655D+00

 Vector  116  Occ=0.000000D+00  E= 3.148415D+00

 Vector  117  Occ=0.000000D+00  E= 3.168129D+00

 Vector  118  Occ=0.000000D+00  E= 3.190454D+00

 Vector  119  Occ=0.000000D+00  E= 3.276099D+00

 Vector  120  Occ=0.000000D+00  E= 3.291411D+00

 Vector  121  Occ=0.000000D+00  E= 3.316741D+00

 Vector  122  Occ=0.000000D+00  E= 3.356101D+00

 Vector  123  Occ=0.000000D+00  E= 3.371664D+00

 Vector  124  Occ=0.000000D+00  E= 3.430564D+00

 Vector  125  Occ=0.000000D+00  E= 3.455275D+00

 Vector  126  Occ=0.000000D+00  E= 3.565210D+00

 Vector  127  Occ=0.000000D+00  E= 3.572457D+00

 Vector  128  Occ=0.000000D+00  E= 3.636153D+00

 Vector  129  Occ=0.000000D+00  E= 3.766813D+00

 Vector  130  Occ=0.000000D+00  E= 3.786876D+00

 Vector  131  Occ=0.000000D+00  E= 3.881171D+00

 Vector  132  Occ=0.000000D+00  E= 3.896738D+00

 Vector  133  Occ=0.000000D+00  E= 3.985564D+00

 Vector  134  Occ=0.000000D+00  E= 4.048793D+00

 Vector  135  Occ=0.000000D+00  E= 4.143245D+00

 Vector  136  Occ=0.000000D+00  E= 4.197373D+00

 Vector  137  Occ=0.000000D+00  E= 4.260949D+00

 Vector  138  Occ=0.000000D+00  E= 4.287092D+00

 Vector  139  Occ=0.000000D+00  E= 4.339246D+00

 Vector  140  Occ=0.000000D+00  E= 4.469135D+00

 Vector  141  Occ=0.000000D+00  E= 4.561877D+00

 Vector  142  Occ=0.000000D+00  E= 4.573034D+00

 Vector  143  Occ=0.000000D+00  E= 4.737992D+00

 Vector  144  Occ=0.000000D+00  E= 4.770087D+00

 Vector  145  Occ=0.000000D+00  E= 5.181729D+00

 Vector  146  Occ=0.000000D+00  E= 5.346440D+00

 Vector  147  Occ=0.000000D+00  E= 5.577650D+00

 Vector  148  Occ=0.000000D+00  E= 5.603591D+00

 Vector  149  Occ=0.000000D+00  E= 5.667537D+00

 Vector  150  Occ=0.000000D+00  E= 5.763859D+00

 Vector  151  Occ=0.000000D+00  E= 5.909188D+00

 Vector  152  Occ=0.000000D+00  E= 6.464450D+00

 Vector  153  Occ=0.000000D+00  E= 6.506937D+00

 Vector  154  Occ=0.000000D+00  E= 6.676618D+00

 Vector  155  Occ=0.000000D+00  E= 6.842171D+00

 Vector  156  Occ=0.000000D+00  E= 7.055573D+00

 Vector  157  Occ=0.000000D+00  E= 2.194045D+01

 Vector  158  Occ=0.000000D+00  E= 2.198214D+01

 Vector  159  Occ=0.000000D+00  E= 2.210126D+01

 Vector  160  Occ=0.000000D+00  E= 4.341456D+01

     Multipole analysis of the density
     ---------------------------------

     L   x y z        total         alpha         beta         nuclear
     -   - - -        -----         -----         ----         -------
     0   0 0 0     -0.000000    -16.000000    -16.000000     32.000000

     1   1 0 0      0.691493     -6.225844     -6.225844     13.143182
     1   0 1 0      0.324983     -1.620081     -1.620081      3.565146
     1   0 0 1     -0.056667      5.321414      5.321414    -10.699494

     2   2 0 0    -20.031484    -54.361173    -54.361173     88.690861
     2   1 1 0     -1.106665     13.884860     13.884860    -28.876385
     2   1 0 1      0.152322     26.480935     26.480935    -52.809548
     2   0 2 0    -17.835409    -40.472529    -40.472529     63.109648
     2   0 1 1      0.248545    -15.404322    -15.404322     31.057189

 Total times  cpu:      623.2s     wall:      632.1s
