============================== echo of input deck ==============================
echo
start methyloxirane_blyp-def2-tzvp_488.9_43.inp
title "methyloxirane roa calculations at 488.9 nm, input generated in va  with delta_type=2"
charge 0

geometry units angstrom nocenter noautoz noautosym nucleus point;symmetry c1
 O -0.879116 -0.180294  0.205257
 C  0.574153 -0.157591  0.122514
 C -0.185517  1.088321  0.340137
 C  1.186420 -0.520837 -1.212548
 H  1.059260 -0.604456  0.999165
 H -0.228021  1.538115  1.335748
 H -0.325393  1.782770 -0.493626
 H  2.221370 -0.222199 -1.245332
 H  1.143506 -1.588297 -1.371941
 H  0.659094 -0.033955 -2.022707
end

basis spherical
* library def2-TZVP
end

 set prop:newaoresp 1
 set aor:roadata T
 set cphf:maxsub 100
 set cphf:acc 1.0d-10
 set cphf:maxiter 100

property
    response 1   0.093196
    bdtensor
    convergence 1e-7
    damping 0.0037
    giao
end

dft
 direct
 mult 1
 xc becke88 lyp
 iterations 250
 tolerances tight
 grid xfine
 convergence nolevelshifting
 convergence energy 1e-8
 convergence gradient 1e-7

end

task dft gradient
task dft property
================================================================================

 Output coordinates in angstroms (scale by  1.889725989 to convert to a.u.)

  No.       Tag          Charge          X              Y              Z
 ---- ---------------- ---------- -------------- -------------- --------------
    1 O                    8.0000    -0.87911600    -0.18029400     0.20525700
    2 C                    6.0000     0.57415300    -0.15759100     0.12251400
    3 C                    6.0000    -0.18551700     1.08832100     0.34013700
    4 C                    6.0000     1.18642000    -0.52083700    -1.21254800
    5 H                    1.0000     1.05926000    -0.60445600     0.99916500
    6 H                    1.0000    -0.22802100     1.53811500     1.33574800
    7 H                    1.0000    -0.32539300     1.78277000    -0.49362600
    8 H                    1.0000     2.22137000    -0.22219900    -1.24533200
    9 H                    1.0000     1.14350600    -1.58829700    -1.37194100
   10 H                    1.0000     0.65909400    -0.03395500    -2.02270700

         Total DFT energy =     -193.108689211912
         Total DFT energy =     -193.108689212052

                       DFT Final Molecular Orbital Analysis
                       ------------------------------------

 Vector    1  Occ=2.000000D+00  E=-1.877948D+01

 Vector   81  Occ=0.000000D+00  E= 1.872386D+00

 Vector   82  Occ=0.000000D+00  E= 1.923822D+00

 Vector   83  Occ=0.000000D+00  E= 1.990429D+00

 Vector   84  Occ=0.000000D+00  E= 1.995152D+00

 Vector   85  Occ=0.000000D+00  E= 2.089465D+00

 Vector   86  Occ=0.000000D+00  E= 2.100096D+00

 Vector   87  Occ=0.000000D+00  E= 2.166263D+00

 Vector   88  Occ=0.000000D+00  E= 2.198866D+00

 Vector   89  Occ=0.000000D+00  E= 2.234866D+00

 Vector   90  Occ=0.000000D+00  E= 2.258271D+00

 Vector   91  Occ=0.000000D+00  E= 2.271982D+00

 Vector   92  Occ=0.000000D+00  E= 2.292410D+00

 Vector   93  Occ=0.000000D+00  E= 2.351226D+00

 Vector   94  Occ=0.000000D+00  E= 2.398250D+00

 Vector   95  Occ=0.000000D+00  E= 2.453575D+00

 Vector   96  Occ=0.000000D+00  E= 2.488853D+00

 Vector   97  Occ=0.000000D+00  E= 2.500433D+00

 Vector   98  Occ=0.000000D+00  E= 2.531840D+00

 Vector   99  Occ=0.000000D+00  E= 2.535523D+00

 Vector  100  Occ=0.000000D+00  E= 2.563570D+00

 Vector  101  Occ=0.000000D+00  E= 2.599895D+00

 Vector  102  Occ=0.000000D+00  E= 2.652166D+00

 Vector  103  Occ=0.000000D+00  E= 2.674743D+00

 Vector  104  Occ=0.000000D+00  E= 2.727172D+00

 Vector  105  Occ=0.000000D+00  E= 2.745074D+00

 Vector  106  Occ=0.000000D+00  E= 2.812291D+00

 Vector  107  Occ=0.000000D+00  E= 2.834193D+00

 Vector  108  Occ=0.000000D+00  E= 2.863809D+00

 Vector  109  Occ=0.000000D+00  E= 2.903414D+00

 Vector  110  Occ=0.000000D+00  E= 2.961099D+00

 Vector  111  Occ=0.000000D+00  E= 2.964886D+00

 Vector  112  Occ=0.000000D+00  E= 2.987091D+00

 Vector  113  Occ=0.000000D+00  E= 3.000742D+00

 Vector  114  Occ=0.000000D+00  E= 3.041914D+00

 Vector  115  Occ=0.000000D+00  E= 3.070772D+00

 Vector  116  Occ=0.000000D+00  E= 3.150267D+00

 Vector  117  Occ=0.000000D+00  E= 3.168088D+00

 Vector  118  Occ=0.000000D+00  E= 3.194888D+00

 Vector  119  Occ=0.000000D+00  E= 3.282954D+00

 Vector  120  Occ=0.000000D+00  E= 3.301594D+00

 Vector  121  Occ=0.000000D+00  E= 3.322498D+00

 Vector  122  Occ=0.000000D+00  E= 3.358018D+00

 Vector  123  Occ=0.000000D+00  E= 3.378025D+00

 Vector  124  Occ=0.000000D+00  E= 3.432832D+00

 Vector  125  Occ=0.000000D+00  E= 3.463794D+00

 Vector  126  Occ=0.000000D+00  E= 3.567545D+00

 Vector  127  Occ=0.000000D+00  E= 3.574628D+00

 Vector  128  Occ=0.000000D+00  E= 3.642118D+00

 Vector  129  Occ=0.000000D+00  E= 3.770859D+00

 Vector  130  Occ=0.000000D+00  E= 3.788292D+00

 Vector  131  Occ=0.000000D+00  E= 3.884378D+00

 Vector  132  Occ=0.000000D+00  E= 3.900130D+00

 Vector  133  Occ=0.000000D+00  E= 3.995879D+00

 Vector  134  Occ=0.000000D+00  E= 4.048923D+00

 Vector  135  Occ=0.000000D+00  E= 4.161499D+00

 Vector  136  Occ=0.000000D+00  E= 4.204491D+00

 Vector  137  Occ=0.000000D+00  E= 4.267410D+00

 Vector  138  Occ=0.000000D+00  E= 4.316708D+00

 Vector  139  Occ=0.000000D+00  E= 4.351515D+00

 Vector  140  Occ=0.000000D+00  E= 4.480700D+00

 Vector  141  Occ=0.000000D+00  E= 4.568651D+00

 Vector  142  Occ=0.000000D+00  E= 4.576362D+00

 Vector  143  Occ=0.000000D+00  E= 4.738739D+00

 Vector  144  Occ=0.000000D+00  E= 4.769920D+00

 Vector  145  Occ=0.000000D+00  E= 5.182217D+00

 Vector  146  Occ=0.000000D+00  E= 5.346947D+00

 Vector  147  Occ=0.000000D+00  E= 5.577845D+00

 Vector  148  Occ=0.000000D+00  E= 5.604092D+00

 Vector  149  Occ=0.000000D+00  E= 5.667712D+00

 Vector  150  Occ=0.000000D+00  E= 5.764107D+00

 Vector  151  Occ=0.000000D+00  E= 5.909763D+00

 Vector  152  Occ=0.000000D+00  E= 6.464876D+00

 Vector  153  Occ=0.000000D+00  E= 6.507294D+00

 Vector  154  Occ=0.000000D+00  E= 6.676826D+00

 Vector  155  Occ=0.000000D+00  E= 6.842340D+00

 Vector  156  Occ=0.000000D+00  E= 7.055840D+00

 Vector  157  Occ=0.000000D+00  E= 2.194524D+01

 Vector  158  Occ=0.000000D+00  E= 2.202711D+01

 Vector  159  Occ=0.000000D+00  E= 2.212104D+01

 Vector  160  Occ=0.000000D+00  E= 4.341429D+01

     Multipole analysis of the density
     ---------------------------------

     L   x y z        total         alpha         beta         nuclear
     -   - - -        -----         -----         ----         -------
     0   0 0 0     -0.000000    -16.000000    -16.000000     32.000000

     1   1 0 0      0.695673     -6.216338     -6.216338     13.128350
     1   0 1 0      0.322837     -1.623412     -1.623412      3.569662
     1   0 0 1     -0.063151      5.312587      5.312587    -10.688326

     2   2 0 0    -19.980918    -54.216528    -54.216528     88.452138
     2   1 1 0     -1.118585     13.898495     13.898495    -28.915574
     2   1 0 1      0.130780     26.465486     26.465486    -52.800193
     2   0 2 0    -17.812071    -40.377800    -40.377800     62.943530
     2   0 1 1      0.258892    -15.392929    -15.392929     31.044750

 Total times  cpu:      690.9s     wall:      708.7s
