============================== echo of input deck ==============================
echo
start methyloxirane_blyp-def2-tzvp_488.9_00.inp
title "methyloxirane roa calculations at 488.9 nm, input generated in va  with delta_type=2"
charge 0

geometry units angstrom nocenter noautoz noautosym nucleus point;symmetry c1
 O -0.879112 -0.180294  0.205257
 C  0.574200 -0.157646  0.122588
 C -0.185517  1.088353  0.340116
 C  1.185420 -0.520407 -1.211416
 H  1.058604 -0.603865  0.998120
 H -0.228052  1.538075  1.335550
 H -0.325346  1.782434 -0.493154
 H  2.241636 -0.216103 -1.245734
 H  1.142471 -1.606131 -1.374270
 H  0.651796 -0.027264 -2.033329
end

basis spherical
* library def2-TZVP
end

 set prop:newaoresp 1
 set aor:roadata T
 set cphf:maxsub 100
 set cphf:acc 1.0d-10
 set cphf:maxiter 100

property
    response 1   0.093196
    bdtensor
    convergence 1e-7
    damping 0.0037
    giao
end

dft
 direct
 mult 1
 xc becke88 lyp
 iterations 250
 tolerances tight
 grid xfine
 convergence nolevelshifting
 convergence energy 1e-8
 convergence gradient 1e-7

end

task dft gradient
task dft property
================================================================================

 Output coordinates in angstroms (scale by  1.889725989 to convert to a.u.)

  No.       Tag          Charge          X              Y              Z
 ---- ---------------- ---------- -------------- -------------- --------------
    1 O                    8.0000    -0.87911200    -0.18029400     0.20525700
    2 C                    6.0000     0.57420000    -0.15764600     0.12258800
    3 C                    6.0000    -0.18551700     1.08835300     0.34011600
    4 C                    6.0000     1.18542000    -0.52040700    -1.21141600
    5 H                    1.0000     1.05860400    -0.60386500     0.99812000
    6 H                    1.0000    -0.22805200     1.53807500     1.33555000
    7 H                    1.0000    -0.32534600     1.78243400    -0.49315400
    8 H                    1.0000     2.24163600    -0.21610300    -1.24573400
    9 H                    1.0000     1.14247100    -1.60613100    -1.37427000
   10 H                    1.0000     0.65179600    -0.02726400    -2.03332900

         Total DFT energy =     -193.109316941463
         Total DFT energy =     -193.109316941617

                       DFT Final Molecular Orbital Analysis
                       ------------------------------------

 Vector    1  Occ=2.000000D+00  E=-1.877971D+01

 Vector   81  Occ=0.000000D+00  E= 1.867311D+00

 Vector   82  Occ=0.000000D+00  E= 1.920882D+00

 Vector   83  Occ=0.000000D+00  E= 1.991237D+00

 Vector   84  Occ=0.000000D+00  E= 1.994476D+00

 Vector   85  Occ=0.000000D+00  E= 2.089635D+00

 Vector   86  Occ=0.000000D+00  E= 2.097158D+00

 Vector   87  Occ=0.000000D+00  E= 2.166288D+00

 Vector   88  Occ=0.000000D+00  E= 2.200023D+00

 Vector   89  Occ=0.000000D+00  E= 2.229290D+00

 Vector   90  Occ=0.000000D+00  E= 2.243763D+00

 Vector   91  Occ=0.000000D+00  E= 2.266611D+00

 Vector   92  Occ=0.000000D+00  E= 2.283129D+00

 Vector   93  Occ=0.000000D+00  E= 2.350618D+00

 Vector   94  Occ=0.000000D+00  E= 2.387375D+00

 Vector   95  Occ=0.000000D+00  E= 2.450895D+00

 Vector   96  Occ=0.000000D+00  E= 2.473588D+00

 Vector   97  Occ=0.000000D+00  E= 2.483567D+00

 Vector   98  Occ=0.000000D+00  E= 2.525504D+00

 Vector   99  Occ=0.000000D+00  E= 2.532606D+00

 Vector  100  Occ=0.000000D+00  E= 2.559555D+00

 Vector  101  Occ=0.000000D+00  E= 2.598761D+00

 Vector  102  Occ=0.000000D+00  E= 2.649409D+00

 Vector  103  Occ=0.000000D+00  E= 2.668190D+00

 Vector  104  Occ=0.000000D+00  E= 2.716221D+00

 Vector  105  Occ=0.000000D+00  E= 2.739710D+00

 Vector  106  Occ=0.000000D+00  E= 2.806579D+00

 Vector  107  Occ=0.000000D+00  E= 2.831696D+00

 Vector  108  Occ=0.000000D+00  E= 2.861932D+00

 Vector  109  Occ=0.000000D+00  E= 2.898804D+00

 Vector  110  Occ=0.000000D+00  E= 2.960648D+00

 Vector  111  Occ=0.000000D+00  E= 2.965908D+00

 Vector  112  Occ=0.000000D+00  E= 2.988600D+00

 Vector  113  Occ=0.000000D+00  E= 3.007401D+00

 Vector  114  Occ=0.000000D+00  E= 3.034656D+00

 Vector  115  Occ=0.000000D+00  E= 3.068961D+00

 Vector  116  Occ=0.000000D+00  E= 3.146372D+00

 Vector  117  Occ=0.000000D+00  E= 3.167111D+00

 Vector  118  Occ=0.000000D+00  E= 3.190275D+00

 Vector  119  Occ=0.000000D+00  E= 3.278500D+00

 Vector  120  Occ=0.000000D+00  E= 3.293012D+00

 Vector  121  Occ=0.000000D+00  E= 3.316678D+00

 Vector  122  Occ=0.000000D+00  E= 3.354130D+00

 Vector  123  Occ=0.000000D+00  E= 3.373227D+00

 Vector  124  Occ=0.000000D+00  E= 3.430458D+00

 Vector  125  Occ=0.000000D+00  E= 3.456528D+00

 Vector  126  Occ=0.000000D+00  E= 3.564259D+00

 Vector  127  Occ=0.000000D+00  E= 3.572301D+00

 Vector  128  Occ=0.000000D+00  E= 3.636347D+00

 Vector  129  Occ=0.000000D+00  E= 3.766514D+00

 Vector  130  Occ=0.000000D+00  E= 3.784745D+00

 Vector  131  Occ=0.000000D+00  E= 3.880962D+00

 Vector  132  Occ=0.000000D+00  E= 3.897678D+00

 Vector  133  Occ=0.000000D+00  E= 3.987752D+00

 Vector  134  Occ=0.000000D+00  E= 4.048570D+00

 Vector  135  Occ=0.000000D+00  E= 4.145267D+00

 Vector  136  Occ=0.000000D+00  E= 4.196574D+00

 Vector  137  Occ=0.000000D+00  E= 4.260849D+00

 Vector  138  Occ=0.000000D+00  E= 4.288456D+00

 Vector  139  Occ=0.000000D+00  E= 4.338401D+00

 Vector  140  Occ=0.000000D+00  E= 4.469549D+00

 Vector  141  Occ=0.000000D+00  E= 4.561237D+00

 Vector  142  Occ=0.000000D+00  E= 4.572506D+00

 Vector  143  Occ=0.000000D+00  E= 4.738143D+00

 Vector  144  Occ=0.000000D+00  E= 4.770760D+00

 Vector  145  Occ=0.000000D+00  E= 5.181930D+00

 Vector  146  Occ=0.000000D+00  E= 5.346752D+00

 Vector  147  Occ=0.000000D+00  E= 5.577671D+00

 Vector  148  Occ=0.000000D+00  E= 5.603846D+00

 Vector  149  Occ=0.000000D+00  E= 5.667167D+00

 Vector  150  Occ=0.000000D+00  E= 5.763710D+00

 Vector  151  Occ=0.000000D+00  E= 5.909093D+00

 Vector  152  Occ=0.000000D+00  E= 6.464662D+00

 Vector  153  Occ=0.000000D+00  E= 6.507152D+00

 Vector  154  Occ=0.000000D+00  E= 6.676472D+00

 Vector  155  Occ=0.000000D+00  E= 6.842129D+00

 Vector  156  Occ=0.000000D+00  E= 7.055633D+00

 Vector  157  Occ=0.000000D+00  E= 2.194076D+01

 Vector  158  Occ=0.000000D+00  E= 2.198212D+01

 Vector  159  Occ=0.000000D+00  E= 2.210131D+01

 Vector  160  Occ=0.000000D+00  E= 4.341417D+01

     Multipole analysis of the density
     ---------------------------------

     L   x y z        total         alpha         beta         nuclear
     -   - - -        -----         -----         ----         -------
     0   0 0 0     -0.000000    -16.000000    -16.000000     32.000000

     1   1 0 0      0.690407     -6.224269     -6.224269     13.138945
     1   0 1 0      0.325715     -1.619716     -1.619716      3.565146
     1   0 0 1     -0.057152      5.322214      5.322214    -10.701581

     2   2 0 0    -20.026115    -54.351874    -54.351874     88.677633
     2   1 1 0     -1.111318     13.898334     13.898334    -28.907986
     2   1 0 1      0.152417     26.486715     26.486715    -52.821013
     2   0 2 0    -17.837230    -40.479100    -40.479100     63.120970
     2   0 1 1      0.250192    -15.401715    -15.401715     31.053622

 Total times  cpu:      609.5s     wall:      623.2s
