============================== echo of input deck ==============================
echo
start methyloxirane_blyp-def2-tzvp_488.9_27.inp
title "methyloxirane roa calculations at 488.9 nm, input generated in va  with delta_type=2"
charge 0

geometry units angstrom nocenter noautoz noautosym nucleus point;symmetry c1
 O -0.882112 -0.178801  0.209775
 C  0.571300 -0.156574  0.116108
 C -0.187182  1.089053  0.342793
 C  1.191446 -0.523318 -1.214030
 H  1.058171 -0.601961  0.990850
 H -0.219053  1.535029  1.340520
 H -0.336346  1.786502 -0.486062
 H  2.247910 -0.218254 -1.236390
 H  1.152675 -1.609955 -1.371999
 H  0.667956 -0.034368 -2.045009
end

basis spherical
* library def2-TZVP
end

 set prop:newaoresp 1
 set aor:roadata T
 set cphf:maxsub 100
 set cphf:acc 1.0d-10
 set cphf:maxiter 100

property
    response 1   0.093196
    bdtensor
    convergence 1e-7
    damping 0.0037
    giao
end

dft
 direct
 mult 1
 xc becke88 lyp
 iterations 250
 tolerances tight
 grid xfine
 convergence nolevelshifting
 convergence energy 1e-8
 convergence gradient 1e-7

end

task dft gradient
task dft property
================================================================================

 Output coordinates in angstroms (scale by  1.889725989 to convert to a.u.)

  No.       Tag          Charge          X              Y              Z
 ---- ---------------- ---------- -------------- -------------- --------------
    1 O                    8.0000    -0.88211200    -0.17880100     0.20977500
    2 C                    6.0000     0.57130000    -0.15657400     0.11610800
    3 C                    6.0000    -0.18718200     1.08905300     0.34279300
    4 C                    6.0000     1.19144600    -0.52331800    -1.21403000
    5 H                    1.0000     1.05817100    -0.60196100     0.99085000
    6 H                    1.0000    -0.21905300     1.53502900     1.34052000
    7 H                    1.0000    -0.33634600     1.78650200    -0.48606200
    8 H                    1.0000     2.24791000    -0.21825400    -1.23639000
    9 H                    1.0000     1.15267500    -1.60995500    -1.37199900
   10 H                    1.0000     0.66795600    -0.03436800    -2.04500900

         Total DFT energy =     -193.109285513615
         Total DFT energy =     -193.109285513789

                       DFT Final Molecular Orbital Analysis
                       ------------------------------------

 Vector    1  Occ=2.000000D+00  E=-1.877978D+01

 Vector   81  Occ=0.000000D+00  E= 1.866192D+00

 Vector   82  Occ=0.000000D+00  E= 1.917867D+00

 Vector   83  Occ=0.000000D+00  E= 1.991573D+00

 Vector   84  Occ=0.000000D+00  E= 1.995842D+00

 Vector   85  Occ=0.000000D+00  E= 2.088381D+00

 Vector   86  Occ=0.000000D+00  E= 2.098009D+00

 Vector   87  Occ=0.000000D+00  E= 2.163005D+00

 Vector   88  Occ=0.000000D+00  E= 2.199614D+00

 Vector   89  Occ=0.000000D+00  E= 2.231836D+00

 Vector   90  Occ=0.000000D+00  E= 2.243121D+00

 Vector   91  Occ=0.000000D+00  E= 2.264522D+00

 Vector   92  Occ=0.000000D+00  E= 2.283686D+00

 Vector   93  Occ=0.000000D+00  E= 2.351079D+00

 Vector   94  Occ=0.000000D+00  E= 2.387398D+00

 Vector   95  Occ=0.000000D+00  E= 2.450108D+00

 Vector   96  Occ=0.000000D+00  E= 2.473159D+00

 Vector   97  Occ=0.000000D+00  E= 2.482656D+00

 Vector   98  Occ=0.000000D+00  E= 2.526324D+00

 Vector   99  Occ=0.000000D+00  E= 2.533036D+00

 Vector  100  Occ=0.000000D+00  E= 2.559095D+00

 Vector  101  Occ=0.000000D+00  E= 2.599709D+00

 Vector  102  Occ=0.000000D+00  E= 2.650060D+00

 Vector  103  Occ=0.000000D+00  E= 2.667205D+00

 Vector  104  Occ=0.000000D+00  E= 2.717494D+00

 Vector  105  Occ=0.000000D+00  E= 2.739429D+00

 Vector  106  Occ=0.000000D+00  E= 2.807654D+00

 Vector  107  Occ=0.000000D+00  E= 2.828477D+00

 Vector  108  Occ=0.000000D+00  E= 2.862322D+00

 Vector  109  Occ=0.000000D+00  E= 2.897838D+00

 Vector  110  Occ=0.000000D+00  E= 2.959251D+00

 Vector  111  Occ=0.000000D+00  E= 2.967485D+00

 Vector  112  Occ=0.000000D+00  E= 2.989582D+00

 Vector  113  Occ=0.000000D+00  E= 3.007481D+00

 Vector  114  Occ=0.000000D+00  E= 3.035888D+00

 Vector  115  Occ=0.000000D+00  E= 3.069894D+00

 Vector  116  Occ=0.000000D+00  E= 3.142233D+00

 Vector  117  Occ=0.000000D+00  E= 3.161815D+00

 Vector  118  Occ=0.000000D+00  E= 3.187656D+00

 Vector  119  Occ=0.000000D+00  E= 3.280381D+00

 Vector  120  Occ=0.000000D+00  E= 3.293255D+00

 Vector  121  Occ=0.000000D+00  E= 3.316079D+00

 Vector  122  Occ=0.000000D+00  E= 3.355083D+00

 Vector  123  Occ=0.000000D+00  E= 3.374741D+00

 Vector  124  Occ=0.000000D+00  E= 3.427250D+00

 Vector  125  Occ=0.000000D+00  E= 3.455290D+00

 Vector  126  Occ=0.000000D+00  E= 3.559739D+00

 Vector  127  Occ=0.000000D+00  E= 3.570059D+00

 Vector  128  Occ=0.000000D+00  E= 3.633514D+00

 Vector  129  Occ=0.000000D+00  E= 3.764255D+00

 Vector  130  Occ=0.000000D+00  E= 3.782542D+00

 Vector  131  Occ=0.000000D+00  E= 3.877406D+00

 Vector  132  Occ=0.000000D+00  E= 3.894795D+00

 Vector  133  Occ=0.000000D+00  E= 3.986935D+00

 Vector  134  Occ=0.000000D+00  E= 4.048177D+00

 Vector  135  Occ=0.000000D+00  E= 4.143389D+00

 Vector  136  Occ=0.000000D+00  E= 4.197511D+00

 Vector  137  Occ=0.000000D+00  E= 4.263853D+00

 Vector  138  Occ=0.000000D+00  E= 4.288156D+00

 Vector  139  Occ=0.000000D+00  E= 4.339782D+00

 Vector  140  Occ=0.000000D+00  E= 4.466789D+00

 Vector  141  Occ=0.000000D+00  E= 4.555692D+00

 Vector  142  Occ=0.000000D+00  E= 4.575923D+00

 Vector  143  Occ=0.000000D+00  E= 4.737712D+00

 Vector  144  Occ=0.000000D+00  E= 4.775277D+00

 Vector  145  Occ=0.000000D+00  E= 5.181343D+00

 Vector  146  Occ=0.000000D+00  E= 5.346335D+00

 Vector  147  Occ=0.000000D+00  E= 5.577758D+00

 Vector  148  Occ=0.000000D+00  E= 5.603750D+00

 Vector  149  Occ=0.000000D+00  E= 5.667614D+00

 Vector  150  Occ=0.000000D+00  E= 5.763571D+00

 Vector  151  Occ=0.000000D+00  E= 5.908928D+00

 Vector  152  Occ=0.000000D+00  E= 6.464358D+00

 Vector  153  Occ=0.000000D+00  E= 6.506632D+00

 Vector  154  Occ=0.000000D+00  E= 6.674246D+00

 Vector  155  Occ=0.000000D+00  E= 6.841879D+00

 Vector  156  Occ=0.000000D+00  E= 7.054725D+00

 Vector  157  Occ=0.000000D+00  E= 2.193940D+01

 Vector  158  Occ=0.000000D+00  E= 2.198365D+01

 Vector  159  Occ=0.000000D+00  E= 2.209931D+01

 Vector  160  Occ=0.000000D+00  E= 4.341244D+01

     Multipole analysis of the density
     ---------------------------------

     L   x y z        total         alpha         beta         nuclear
     -   - - -        -----         -----         ----         -------
     0   0 0 0     -0.000000    -16.000000    -16.000000     32.000000

     1   1 0 0      0.693807     -6.236714     -6.236714     13.167235
     1   0 1 0      0.325026     -1.615295     -1.615295      3.555616
     1   0 0 1     -0.062667      5.317218      5.317218    -10.697104

     2   2 0 0    -20.018716    -54.682519    -54.682519     89.346321
     2   1 1 0     -1.114489     14.052875     14.052875    -29.220239
     2   1 0 1      0.149829     26.776602     26.776602    -53.403375
     2   0 2 0    -17.836723    -40.545977    -40.545977     63.255231
     2   0 1 1      0.261814    -15.554350    -15.554350     31.370515

 Total times  cpu:      465.1s     wall:      470.4s
