============================== echo of input deck ==============================
echo
start methyloxirane_blyp-def2-tzvp_488.9_34.inp
title "methyloxirane roa calculations at 488.9 nm, input generated in va  with delta_type=2"
charge 0

geometry units angstrom nocenter noautoz noautosym nucleus point;symmetry c1
 O -0.880664 -0.180304  0.206061
 C  0.576470 -0.157808  0.120866
 C -0.182297  1.089463  0.338920
 C  1.185124 -0.520938 -1.209942
 H  1.058838 -0.612248  0.993170
 H -0.248654  1.533228  1.335890
 H -0.339668  1.786189 -0.489453
 H  2.240657 -0.214055 -1.243949
 H  1.142651 -1.606185 -1.375140
 H  0.650068 -0.024597 -2.028907
end

basis spherical
* library def2-TZVP
end

 set prop:newaoresp 1
 set aor:roadata T
 set cphf:maxsub 100
 set cphf:acc 1.0d-10
 set cphf:maxiter 100

property
    response 1   0.093196
    bdtensor
    convergence 1e-7
    damping 0.0037
    giao
end

dft
 direct
 mult 1
 xc becke88 lyp
 iterations 250
 tolerances tight
 grid xfine
 convergence nolevelshifting
 convergence energy 1e-8
 convergence gradient 1e-7

end

task dft gradient
task dft property
================================================================================

 Output coordinates in angstroms (scale by  1.889725989 to convert to a.u.)

  No.       Tag          Charge          X              Y              Z
 ---- ---------------- ---------- -------------- -------------- --------------
    1 O                    8.0000    -0.88066400    -0.18030400     0.20606100
    2 C                    6.0000     0.57647000    -0.15780800     0.12086600
    3 C                    6.0000    -0.18229700     1.08946300     0.33892000
    4 C                    6.0000     1.18512400    -0.52093800    -1.20994200
    5 H                    1.0000     1.05883800    -0.61224800     0.99317000
    6 H                    1.0000    -0.24865400     1.53322800     1.33589000
    7 H                    1.0000    -0.33966800     1.78618900    -0.48945300
    8 H                    1.0000     2.24065700    -0.21405500    -1.24394900
    9 H                    1.0000     1.14265100    -1.60618500    -1.37514000
   10 H                    1.0000     0.65006800    -0.02459700    -2.02890700

         Total DFT energy =     -193.109219870764
         Total DFT energy =     -193.109219870966

                       DFT Final Molecular Orbital Analysis
                       ------------------------------------

 Vector    1  Occ=2.000000D+00  E=-1.877864D+01

 Vector   81  Occ=0.000000D+00  E= 1.868262D+00

 Vector   82  Occ=0.000000D+00  E= 1.919416D+00

 Vector   83  Occ=0.000000D+00  E= 1.991898D+00

 Vector   84  Occ=0.000000D+00  E= 1.993117D+00

 Vector   85  Occ=0.000000D+00  E= 2.094341D+00

 Vector   86  Occ=0.000000D+00  E= 2.098961D+00

 Vector   87  Occ=0.000000D+00  E= 2.167132D+00

 Vector   88  Occ=0.000000D+00  E= 2.203874D+00

 Vector   89  Occ=0.000000D+00  E= 2.228000D+00

 Vector   90  Occ=0.000000D+00  E= 2.244619D+00

 Vector   91  Occ=0.000000D+00  E= 2.264832D+00

 Vector   92  Occ=0.000000D+00  E= 2.279317D+00

 Vector   93  Occ=0.000000D+00  E= 2.348175D+00

 Vector   94  Occ=0.000000D+00  E= 2.385153D+00

 Vector   95  Occ=0.000000D+00  E= 2.448077D+00

 Vector   96  Occ=0.000000D+00  E= 2.471386D+00

 Vector   97  Occ=0.000000D+00  E= 2.483217D+00

 Vector   98  Occ=0.000000D+00  E= 2.527389D+00

 Vector   99  Occ=0.000000D+00  E= 2.531548D+00

 Vector  100  Occ=0.000000D+00  E= 2.562057D+00

 Vector  101  Occ=0.000000D+00  E= 2.598044D+00

 Vector  102  Occ=0.000000D+00  E= 2.646471D+00

 Vector  103  Occ=0.000000D+00  E= 2.669610D+00

 Vector  104  Occ=0.000000D+00  E= 2.719200D+00

 Vector  105  Occ=0.000000D+00  E= 2.739981D+00

 Vector  106  Occ=0.000000D+00  E= 2.805326D+00

 Vector  107  Occ=0.000000D+00  E= 2.836009D+00

 Vector  108  Occ=0.000000D+00  E= 2.861443D+00

 Vector  109  Occ=0.000000D+00  E= 2.900849D+00

 Vector  110  Occ=0.000000D+00  E= 2.956801D+00

 Vector  111  Occ=0.000000D+00  E= 2.964644D+00

 Vector  112  Occ=0.000000D+00  E= 2.987030D+00

 Vector  113  Occ=0.000000D+00  E= 3.007443D+00

 Vector  114  Occ=0.000000D+00  E= 3.036196D+00

 Vector  115  Occ=0.000000D+00  E= 3.066089D+00

 Vector  116  Occ=0.000000D+00  E= 3.145877D+00

 Vector  117  Occ=0.000000D+00  E= 3.165975D+00

 Vector  118  Occ=0.000000D+00  E= 3.189812D+00

 Vector  119  Occ=0.000000D+00  E= 3.279053D+00

 Vector  120  Occ=0.000000D+00  E= 3.291966D+00

 Vector  121  Occ=0.000000D+00  E= 3.315123D+00

 Vector  122  Occ=0.000000D+00  E= 3.357098D+00

 Vector  123  Occ=0.000000D+00  E= 3.369162D+00

 Vector  124  Occ=0.000000D+00  E= 3.428344D+00

 Vector  125  Occ=0.000000D+00  E= 3.455419D+00

 Vector  126  Occ=0.000000D+00  E= 3.564059D+00

 Vector  127  Occ=0.000000D+00  E= 3.573603D+00

 Vector  128  Occ=0.000000D+00  E= 3.634850D+00

 Vector  129  Occ=0.000000D+00  E= 3.763389D+00

 Vector  130  Occ=0.000000D+00  E= 3.784031D+00

 Vector  131  Occ=0.000000D+00  E= 3.881782D+00

 Vector  132  Occ=0.000000D+00  E= 3.901792D+00

 Vector  133  Occ=0.000000D+00  E= 3.988870D+00

 Vector  134  Occ=0.000000D+00  E= 4.052824D+00

 Vector  135  Occ=0.000000D+00  E= 4.146922D+00

 Vector  136  Occ=0.000000D+00  E= 4.193874D+00

 Vector  137  Occ=0.000000D+00  E= 4.257842D+00

 Vector  138  Occ=0.000000D+00  E= 4.290033D+00

 Vector  139  Occ=0.000000D+00  E= 4.337971D+00

 Vector  140  Occ=0.000000D+00  E= 4.478515D+00

 Vector  141  Occ=0.000000D+00  E= 4.565860D+00

 Vector  142  Occ=0.000000D+00  E= 4.575442D+00

 Vector  143  Occ=0.000000D+00  E= 4.736769D+00

 Vector  144  Occ=0.000000D+00  E= 4.770373D+00

 Vector  145  Occ=0.000000D+00  E= 5.181933D+00

 Vector  146  Occ=0.000000D+00  E= 5.344170D+00

 Vector  147  Occ=0.000000D+00  E= 5.573354D+00

 Vector  148  Occ=0.000000D+00  E= 5.600627D+00

 Vector  149  Occ=0.000000D+00  E= 5.663408D+00

 Vector  150  Occ=0.000000D+00  E= 5.757747D+00

 Vector  151  Occ=0.000000D+00  E= 5.904871D+00

 Vector  152  Occ=0.000000D+00  E= 6.462062D+00

 Vector  153  Occ=0.000000D+00  E= 6.507773D+00

 Vector  154  Occ=0.000000D+00  E= 6.675143D+00

 Vector  155  Occ=0.000000D+00  E= 6.842582D+00

 Vector  156  Occ=0.000000D+00  E= 7.056375D+00

 Vector  157  Occ=0.000000D+00  E= 2.193820D+01

 Vector  158  Occ=0.000000D+00  E= 2.198162D+01

 Vector  159  Occ=0.000000D+00  E= 2.210110D+01

 Vector  160  Occ=0.000000D+00  E= 4.341102D+01

     Multipole analysis of the density
     ---------------------------------

     L   x y z        total         alpha         beta         nuclear
     -   - - -        -----         -----         ----         -------
     0   0 0 0     -0.000000    -16.000000    -16.000000     32.000000

     1   1 0 0      0.690566     -6.206739     -6.206739     13.104044
     1   0 1 0      0.326202     -1.617212     -1.617212      3.560625
     1   0 0 1     -0.059808      5.318811      5.318811    -10.697431

     2   2 0 0    -20.015642    -54.417737    -54.417737     88.819832
     2   1 1 0     -1.157570     13.952896     13.952896    -29.063363
     2   1 0 1      0.137245     26.494168     26.494168    -52.851091
     2   0 2 0    -17.814400    -40.514144    -40.514144     63.213889
     2   0 1 1      0.246329    -15.368849    -15.368849     30.984027

 Total times  cpu:      703.7s     wall:      718.2s
