============================== echo of input deck ==============================
echo
start methyloxirane_blyp-def2-tzvp_488.9_28.inp
title "methyloxirane roa calculations at 488.9 nm, input generated in va  with delta_type=2"
charge 0

geometry units angstrom nocenter noautoz noautosym nucleus point;symmetry c1
 O -0.873484 -0.187666  0.203226
 C  0.564093 -0.157927  0.118946
 C -0.178618  1.095476  0.339841
 C  1.180614 -0.518657 -1.206886
 H  1.059717 -0.597359  0.992841
 H -0.217891  1.536178  1.338720
 H -0.331915  1.788938 -0.490530
 H  2.236654 -0.212045 -1.225566
 H  1.143643 -1.605175 -1.366175
 H  0.656991 -0.028711 -2.037154
end

basis spherical
* library def2-TZVP
end

 set prop:newaoresp 1
 set aor:roadata T
 set cphf:maxsub 100
 set cphf:acc 1.0d-10
 set cphf:maxiter 100

property
    response 1   0.093196
    bdtensor
    convergence 1e-7
    damping 0.0037
    giao
end

dft
 direct
 mult 1
 xc becke88 lyp
 iterations 250
 tolerances tight
 grid xfine
 convergence nolevelshifting
 convergence energy 1e-8
 convergence gradient 1e-7

end

task dft gradient
task dft property
================================================================================

 Output coordinates in angstroms (scale by  1.889725989 to convert to a.u.)

  No.       Tag          Charge          X              Y              Z
 ---- ---------------- ---------- -------------- -------------- --------------
    1 O                    8.0000    -0.87348400    -0.18766600     0.20322600
    2 C                    6.0000     0.56409300    -0.15792700     0.11894600
    3 C                    6.0000    -0.17861800     1.09547600     0.33984100
    4 C                    6.0000     1.18061400    -0.51865700    -1.20688600
    5 H                    1.0000     1.05971700    -0.59735900     0.99284100
    6 H                    1.0000    -0.21789100     1.53617800     1.33872000
    7 H                    1.0000    -0.33191500     1.78893800    -0.49053000
    8 H                    1.0000     2.23665400    -0.21204500    -1.22556600
    9 H                    1.0000     1.14364300    -1.60517500    -1.36617500
   10 H                    1.0000     0.65699100    -0.02871100    -2.03715400

         Total DFT energy =     -193.109126442070
         Total DFT energy =     -193.109126442432

                       DFT Final Molecular Orbital Analysis
                       ------------------------------------

 Vector    1  Occ=2.000000D+00  E=-1.877989D+01

 Vector   81  Occ=0.000000D+00  E= 1.872656D+00

 Vector   82  Occ=0.000000D+00  E= 1.923271D+00

 Vector   83  Occ=0.000000D+00  E= 1.991574D+00

 Vector   84  Occ=0.000000D+00  E= 1.995760D+00

 Vector   85  Occ=0.000000D+00  E= 2.088489D+00

 Vector   86  Occ=0.000000D+00  E= 2.095968D+00

 Vector   87  Occ=0.000000D+00  E= 2.169583D+00

 Vector   88  Occ=0.000000D+00  E= 2.200317D+00

 Vector   89  Occ=0.000000D+00  E= 2.237876D+00

 Vector   90  Occ=0.000000D+00  E= 2.244937D+00

 Vector   91  Occ=0.000000D+00  E= 2.266435D+00

 Vector   92  Occ=0.000000D+00  E= 2.284553D+00

 Vector   93  Occ=0.000000D+00  E= 2.354244D+00

 Vector   94  Occ=0.000000D+00  E= 2.386032D+00

 Vector   95  Occ=0.000000D+00  E= 2.453249D+00

 Vector   96  Occ=0.000000D+00  E= 2.472972D+00

 Vector   97  Occ=0.000000D+00  E= 2.483420D+00

 Vector   98  Occ=0.000000D+00  E= 2.527606D+00

 Vector   99  Occ=0.000000D+00  E= 2.536467D+00

 Vector  100  Occ=0.000000D+00  E= 2.563713D+00

 Vector  101  Occ=0.000000D+00  E= 2.591628D+00

 Vector  102  Occ=0.000000D+00  E= 2.651393D+00

 Vector  103  Occ=0.000000D+00  E= 2.673453D+00

 Vector  104  Occ=0.000000D+00  E= 2.716642D+00

 Vector  105  Occ=0.000000D+00  E= 2.742404D+00

 Vector  106  Occ=0.000000D+00  E= 2.808247D+00

 Vector  107  Occ=0.000000D+00  E= 2.833533D+00

 Vector  108  Occ=0.000000D+00  E= 2.867712D+00

 Vector  109  Occ=0.000000D+00  E= 2.897868D+00

 Vector  110  Occ=0.000000D+00  E= 2.960255D+00

 Vector  111  Occ=0.000000D+00  E= 2.964802D+00

 Vector  112  Occ=0.000000D+00  E= 2.988266D+00

 Vector  113  Occ=0.000000D+00  E= 3.008784D+00

 Vector  114  Occ=0.000000D+00  E= 3.041775D+00

 Vector  115  Occ=0.000000D+00  E= 3.064656D+00

 Vector  116  Occ=0.000000D+00  E= 3.150053D+00

 Vector  117  Occ=0.000000D+00  E= 3.159798D+00

 Vector  118  Occ=0.000000D+00  E= 3.189038D+00

 Vector  119  Occ=0.000000D+00  E= 3.286353D+00

 Vector  120  Occ=0.000000D+00  E= 3.297605D+00

 Vector  121  Occ=0.000000D+00  E= 3.316765D+00

 Vector  122  Occ=0.000000D+00  E= 3.358285D+00

 Vector  123  Occ=0.000000D+00  E= 3.381200D+00

 Vector  124  Occ=0.000000D+00  E= 3.429682D+00

 Vector  125  Occ=0.000000D+00  E= 3.457038D+00

 Vector  126  Occ=0.000000D+00  E= 3.565482D+00

 Vector  127  Occ=0.000000D+00  E= 3.575212D+00

 Vector  128  Occ=0.000000D+00  E= 3.636374D+00

 Vector  129  Occ=0.000000D+00  E= 3.768287D+00

 Vector  130  Occ=0.000000D+00  E= 3.790530D+00

 Vector  131  Occ=0.000000D+00  E= 3.881184D+00

 Vector  132  Occ=0.000000D+00  E= 3.903432D+00

 Vector  133  Occ=0.000000D+00  E= 3.991932D+00

 Vector  134  Occ=0.000000D+00  E= 4.049076D+00

 Vector  135  Occ=0.000000D+00  E= 4.145742D+00

 Vector  136  Occ=0.000000D+00  E= 4.199854D+00

 Vector  137  Occ=0.000000D+00  E= 4.265532D+00

 Vector  138  Occ=0.000000D+00  E= 4.295877D+00

 Vector  139  Occ=0.000000D+00  E= 4.342029D+00

 Vector  140  Occ=0.000000D+00  E= 4.471206D+00

 Vector  141  Occ=0.000000D+00  E= 4.569328D+00

 Vector  142  Occ=0.000000D+00  E= 4.574659D+00

 Vector  143  Occ=0.000000D+00  E= 4.726895D+00

 Vector  144  Occ=0.000000D+00  E= 4.785984D+00

 Vector  145  Occ=0.000000D+00  E= 5.183754D+00

 Vector  146  Occ=0.000000D+00  E= 5.344947D+00

 Vector  147  Occ=0.000000D+00  E= 5.562704D+00

 Vector  148  Occ=0.000000D+00  E= 5.607967D+00

 Vector  149  Occ=0.000000D+00  E= 5.691118D+00

 Vector  150  Occ=0.000000D+00  E= 5.761995D+00

 Vector  151  Occ=0.000000D+00  E= 5.916134D+00

 Vector  152  Occ=0.000000D+00  E= 6.466893D+00

 Vector  153  Occ=0.000000D+00  E= 6.503310D+00

 Vector  154  Occ=0.000000D+00  E= 6.683500D+00

 Vector  155  Occ=0.000000D+00  E= 6.843990D+00

 Vector  156  Occ=0.000000D+00  E= 7.054892D+00

 Vector  157  Occ=0.000000D+00  E= 2.192953D+01

 Vector  158  Occ=0.000000D+00  E= 2.199022D+01

 Vector  159  Occ=0.000000D+00  E= 2.212903D+01

 Vector  160  Occ=0.000000D+00  E= 4.342083D+01

     Multipole analysis of the density
     ---------------------------------

     L   x y z        total         alpha         beta         nuclear
     -   - - -        -----         -----         ----         -------
     0   0 0 0     -0.000000    -16.000000    -16.000000     32.000000

     1   1 0 0      0.682870     -6.230900     -6.230900     13.144671
     1   0 1 0      0.337294     -1.620782     -1.620782      3.578858
     1   0 0 1     -0.053721      5.312230      5.312230    -10.678180

     2   2 0 0    -20.065751    -53.939726    -53.939726     87.813702
     2   1 1 0     -1.091618     13.669826     13.669826    -28.431269
     2   1 0 1      0.176566     26.245745     26.245745    -52.314923
     2   0 2 0    -17.792867    -40.652452    -40.652452     63.512037
     2   0 1 1      0.253937    -15.351601    -15.351601     30.957140

 Total times  cpu:      607.5s     wall:      622.3s
