============================== echo of input deck ==============================
echo
start naproxen_355.9_139.inp
title "naproxen roa calculations at 355.9 nm"
charge 0

geometry units angstrom nocenter noautoz noautosym nucleus point;symmetry c1
 O -2.052486 -0.722196 -0.456021
 C -0.670504 -0.647436 -0.541410
 C -0.120087  0.624979 -0.436892
 C  1.280283  0.811762 -0.510717
 C  1.888466  2.102010 -0.404457
 C  3.258268  2.246366 -0.480122
 C  4.122993  1.120755 -0.673298
 C  3.550496 -0.134898 -0.772194
 C  2.136723 -0.334359 -0.697657
 C  0.170442 -1.777051 -0.724119
 C  5.635436  1.351756 -0.763320
 C  6.329406  0.807963  0.491714
 O  6.541379 -0.550427  0.437612
 O  6.660021  1.475200  1.450930
 C  6.257624  0.812497 -2.075515
 H  5.790178  2.436218 -0.714500
 H  5.784874  1.305490 -2.933962
 H  6.122101 -0.269022 -2.178425
 H  7.334413  1.025227 -2.107700
 H  6.954614 -0.798132  1.292094
 H  1.250051  2.973954 -0.260437
 H  3.693222  3.242204 -0.391080
 H  4.198293 -1.001975 -0.901984
 C  1.539200 -1.608870 -0.798535
 H -0.243261 -2.778081 -0.807256
 H  2.186075 -2.474652 -0.938937
 H -0.791793  1.470944 -0.296039
 C -2.678369 -2.008156 -0.553277
 H -2.366524 -2.682991  0.258561
 H -2.489818 -2.488118 -1.525834
 H -3.749492 -1.805979 -0.457208
end

basis spherical
* library def2-TZVP
end

 set prop:newaoresp 1
 set aor:roadata T
 set cphf:maxsub 100
 set cphf:acc 1.0d-10
 set cphf:maxiter 100

property
    response 1   0.128023
    bdtensor
    convergence 1e-7
    damping 0.0037
    giao
end

dft
 direct
 mult 1
 xc becke88 lyp
 iterations 250
 tolerances tight
 grid xfine
 convergence nolevelshifting
 convergence energy 1e-6
 convergence gradient 1e-6

end

task dft gradient
task dft property
================================================================================

 Output coordinates in angstroms (scale by  1.889725989 to convert to a.u.)

  No.       Tag          Charge          X              Y              Z
 ---- ---------------- ---------- -------------- -------------- --------------
    1 O                    8.0000    -2.05248600    -0.72219600    -0.45602100
    2 C                    6.0000    -0.67050400    -0.64743600    -0.54141000
    3 C                    6.0000    -0.12008700     0.62497900    -0.43689200
    4 C                    6.0000     1.28028300     0.81176200    -0.51071700
    5 C                    6.0000     1.88846600     2.10201000    -0.40445700
    6 C                    6.0000     3.25826800     2.24636600    -0.48012200
    7 C                    6.0000     4.12299300     1.12075500    -0.67329800
    8 C                    6.0000     3.55049600    -0.13489800    -0.77219400
    9 C                    6.0000     2.13672300    -0.33435900    -0.69765700
   10 C                    6.0000     0.17044200    -1.77705100    -0.72411900
   11 C                    6.0000     5.63543600     1.35175600    -0.76332000
   12 C                    6.0000     6.32940600     0.80796300     0.49171400
   13 O                    8.0000     6.54137900    -0.55042700     0.43761200
   14 O                    8.0000     6.66002100     1.47520000     1.45093000
   15 C                    6.0000     6.25762400     0.81249700    -2.07551500
   16 H                    1.0000     5.79017800     2.43621800    -0.71450000
   17 H                    1.0000     5.78487400     1.30549000    -2.93396200
   18 H                    1.0000     6.12210100    -0.26902200    -2.17842500
   19 H                    1.0000     7.33441300     1.02522700    -2.10770000
   20 H                    1.0000     6.95461400    -0.79813200     1.29209400
   21 H                    1.0000     1.25005100     2.97395400    -0.26043700
   22 H                    1.0000     3.69322200     3.24220400    -0.39108000
   23 H                    1.0000     4.19829300    -1.00197500    -0.90198400
   24 C                    6.0000     1.53920000    -1.60887000    -0.79853500
   25 H                    1.0000    -0.24326100    -2.77808100    -0.80725600
   26 H                    1.0000     2.18607500    -2.47465200    -0.93893700
   27 H                    1.0000    -0.79179300     1.47094400    -0.29603900
   28 C                    6.0000    -2.67836900    -2.00815600    -0.55327700
   29 H                    1.0000    -2.36652400    -2.68299100     0.25856100
   30 H                    1.0000    -2.48981800    -2.48811800    -1.52583400
   31 H                    1.0000    -3.74949200    -1.80597900    -0.45720800

         Total DFT energy =     -767.628759553623
         Total DFT energy =     -767.628759545335

                       DFT Final Molecular Orbital Analysis
                       ------------------------------------

 Vector    1  Occ=2.000000D+00  E=-1.882049D+01

 Vector  530  Occ=0.000000D+00  E= 4.534682D+00

 Vector  531  Occ=0.000000D+00  E= 4.563026D+00

 Vector  532  Occ=0.000000D+00  E= 4.587376D+00

 Vector  533  Occ=0.000000D+00  E= 4.663585D+00

 Vector  534  Occ=0.000000D+00  E= 4.670467D+00

 Vector  535  Occ=0.000000D+00  E= 4.683042D+00

 Vector  536  Occ=0.000000D+00  E= 4.690827D+00

 Vector  537  Occ=0.000000D+00  E= 4.721763D+00

 Vector  538  Occ=0.000000D+00  E= 4.736793D+00

 Vector  539  Occ=0.000000D+00  E= 4.767108D+00

 Vector  540  Occ=0.000000D+00  E= 4.812118D+00

 Vector  541  Occ=0.000000D+00  E= 4.830865D+00

 Vector  542  Occ=0.000000D+00  E= 4.877252D+00

 Vector  543  Occ=0.000000D+00  E= 4.944809D+00

 Vector  544  Occ=0.000000D+00  E= 4.954449D+00

 Vector  545  Occ=0.000000D+00  E= 5.028149D+00

 Vector  546  Occ=0.000000D+00  E= 5.044608D+00

 Vector  547  Occ=0.000000D+00  E= 5.053129D+00

 Vector  548  Occ=0.000000D+00  E= 5.080055D+00

 Vector  549  Occ=0.000000D+00  E= 5.096470D+00

 Vector  550  Occ=0.000000D+00  E= 5.098895D+00

 Vector  551  Occ=0.000000D+00  E= 5.118776D+00

 Vector  552  Occ=0.000000D+00  E= 5.196853D+00

 Vector  553  Occ=0.000000D+00  E= 5.214435D+00

 Vector  554  Occ=0.000000D+00  E= 5.245139D+00

 Vector  555  Occ=0.000000D+00  E= 5.264045D+00

 Vector  556  Occ=0.000000D+00  E= 5.272829D+00

 Vector  557  Occ=0.000000D+00  E= 5.291174D+00

 Vector  558  Occ=0.000000D+00  E= 5.317653D+00

 Vector  559  Occ=0.000000D+00  E= 5.385184D+00

 Vector  560  Occ=0.000000D+00  E= 5.394613D+00

 Vector  561  Occ=0.000000D+00  E= 5.463236D+00

 Vector  562  Occ=0.000000D+00  E= 5.495379D+00

 Vector  563  Occ=0.000000D+00  E= 5.540228D+00

 Vector  564  Occ=0.000000D+00  E= 5.577943D+00

 Vector  565  Occ=0.000000D+00  E= 5.598972D+00

 Vector  566  Occ=0.000000D+00  E= 5.612747D+00

 Vector  567  Occ=0.000000D+00  E= 5.736788D+00

 Vector  568  Occ=0.000000D+00  E= 5.743262D+00

 Vector  569  Occ=0.000000D+00  E= 5.754309D+00

 Vector  570  Occ=0.000000D+00  E= 5.814227D+00

 Vector  571  Occ=0.000000D+00  E= 5.880487D+00

 Vector  572  Occ=0.000000D+00  E= 6.051560D+00

 Vector  573  Occ=0.000000D+00  E= 6.096347D+00

 Vector  574  Occ=0.000000D+00  E= 6.199573D+00

 Vector  575  Occ=0.000000D+00  E= 6.219894D+00

 Vector  576  Occ=0.000000D+00  E= 6.230896D+00

 Vector  577  Occ=0.000000D+00  E= 6.333626D+00

 Vector  578  Occ=0.000000D+00  E= 6.349210D+00

 Vector  579  Occ=0.000000D+00  E= 6.357605D+00

 Vector  580  Occ=0.000000D+00  E= 6.491342D+00

 Vector  581  Occ=0.000000D+00  E= 6.520667D+00

 Vector  582  Occ=0.000000D+00  E= 6.574868D+00

 Vector  583  Occ=0.000000D+00  E= 6.637453D+00

 Vector  584  Occ=0.000000D+00  E= 6.645468D+00

 Vector  585  Occ=0.000000D+00  E= 6.701463D+00

 Vector  586  Occ=0.000000D+00  E= 6.712135D+00

 Vector  587  Occ=0.000000D+00  E= 6.781354D+00

 Vector  588  Occ=0.000000D+00  E= 6.948006D+00

 Vector  589  Occ=0.000000D+00  E= 6.977712D+00

 Vector  590  Occ=0.000000D+00  E= 7.026535D+00

 Vector  591  Occ=0.000000D+00  E= 7.168652D+00

 Vector  592  Occ=0.000000D+00  E= 7.278904D+00

 Vector  593  Occ=0.000000D+00  E= 2.177615D+01

 Vector  594  Occ=0.000000D+00  E= 2.200688D+01

 Vector  595  Occ=0.000000D+00  E= 2.206183D+01

 Vector  596  Occ=0.000000D+00  E= 2.222548D+01

 Vector  597  Occ=0.000000D+00  E= 2.233921D+01

 Vector  598  Occ=0.000000D+00  E= 2.238051D+01

 Vector  599  Occ=0.000000D+00  E= 2.239739D+01

 Vector  600  Occ=0.000000D+00  E= 2.245639D+01

 Vector  601  Occ=0.000000D+00  E= 2.252526D+01

 Vector  602  Occ=0.000000D+00  E= 2.258960D+01

 Vector  603  Occ=0.000000D+00  E= 2.271435D+01

 Vector  604  Occ=0.000000D+00  E= 2.276894D+01

 Vector  605  Occ=0.000000D+00  E= 2.287206D+01

 Vector  606  Occ=0.000000D+00  E= 2.326565D+01

 Vector  607  Occ=0.000000D+00  E= 4.336049D+01

 Vector  608  Occ=0.000000D+00  E= 4.345015D+01

 Vector  609  Occ=0.000000D+00  E= 4.376398D+01

     Multipole analysis of the density
     ---------------------------------

     L   x y z        total         alpha         beta         nuclear
     -   - - -        -----         -----         ----         -------
     0   0 0 0     -0.000000    -61.000000    -61.000000    122.000000

     1   1 0 0     -0.516466   -301.732368   -301.732368    602.948270
     1   0 1 0     -0.995837    -19.375914    -19.375914     37.755990
     1   0 0 1     -0.541373     50.885456     50.885456   -102.312284

     2   2 0 0    -74.074221  -3657.529288  -3657.529288   7240.984355
     2   1 1 0     -3.821144   -587.056016   -587.056016   1170.290889
     2   1 0 1     -5.684810    135.068840    135.068840   -275.822489
     2   0 2 0    -68.639031   -459.016107   -459.016107    849.393183
     2   0 1 1     -2.894686    -16.886638    -16.886638     30.878591

 Total times  cpu:     9659.3s     wall:    10095.9s
