============================== echo of input deck ==============================
echo
start naproxen_355.9_051.inp
title "naproxen roa calculations at 355.9 nm"
charge 0

geometry units angstrom nocenter noautoz noautosym nucleus point;symmetry c1
 O -2.050964 -0.721118 -0.456005
 C -0.675672 -0.645118 -0.540802
 C -0.121861  0.623135 -0.436983
 C  1.283429  0.817147 -0.510306
 C  1.888849  2.097815 -0.404975
 C  3.258546  2.244980 -0.480334
 C  4.118092  1.125273 -0.672214
 C  3.548782 -0.137490 -0.772435
 C  2.144123 -0.326576 -0.697276
 C  0.170789 -1.779581 -0.724421
 C  5.634838  1.350029 -0.764227
 C  6.329650  0.808532  0.491183
 O  6.541193 -0.551003  0.437006
 O  6.660278  1.475797  1.451863
 C  6.258425  0.813913 -2.075185
 H  5.807020  2.431802 -0.712453
 H  5.783405  1.303256 -2.934494
 H  6.119228 -0.267592 -2.174401
 H  7.335820  1.022728 -2.110515
 H  6.954058 -0.792344  1.293705
 H  1.252431  2.970777 -0.260938
 H  3.691599  3.241187 -0.390907
 H  4.175454 -1.019490 -0.901842
 C  1.539835 -1.613257 -0.799077
 H -0.243603 -2.780832 -0.807523
 H  2.170595 -2.491490 -0.939743
 H -0.793120  1.469706 -0.296065
 C -2.676999 -2.009911 -0.553564
 H -2.370838 -2.684814  0.260140
 H -2.494334 -2.489626 -1.527166
 H -3.745406 -1.794370 -0.456216
end

basis spherical
* library def2-TZVP
end

 set prop:newaoresp 1
 set aor:roadata T
 set cphf:maxsub 100
 set cphf:acc 1.0d-10
 set cphf:maxiter 100

property
    response 1   0.128023
    bdtensor
    convergence 1e-7
    damping 0.0037
    giao
end

dft
 direct
 mult 1
 xc becke88 lyp
 iterations 250
 tolerances tight
 grid xfine
 convergence nolevelshifting
 convergence energy 1e-6
 convergence gradient 1e-6

end

task dft gradient
task dft property
================================================================================

 Output coordinates in angstroms (scale by  1.889725989 to convert to a.u.)

  No.       Tag          Charge          X              Y              Z
 ---- ---------------- ---------- -------------- -------------- --------------
    1 O                    8.0000    -2.05096400    -0.72111800    -0.45600500
    2 C                    6.0000    -0.67567200    -0.64511800    -0.54080200
    3 C                    6.0000    -0.12186100     0.62313500    -0.43698300
    4 C                    6.0000     1.28342900     0.81714700    -0.51030600
    5 C                    6.0000     1.88884900     2.09781500    -0.40497500
    6 C                    6.0000     3.25854600     2.24498000    -0.48033400
    7 C                    6.0000     4.11809200     1.12527300    -0.67221400
    8 C                    6.0000     3.54878200    -0.13749000    -0.77243500
    9 C                    6.0000     2.14412300    -0.32657600    -0.69727600
   10 C                    6.0000     0.17078900    -1.77958100    -0.72442100
   11 C                    6.0000     5.63483800     1.35002900    -0.76422700
   12 C                    6.0000     6.32965000     0.80853200     0.49118300
   13 O                    8.0000     6.54119300    -0.55100300     0.43700600
   14 O                    8.0000     6.66027800     1.47579700     1.45186300
   15 C                    6.0000     6.25842500     0.81391300    -2.07518500
   16 H                    1.0000     5.80702000     2.43180200    -0.71245300
   17 H                    1.0000     5.78340500     1.30325600    -2.93449400
   18 H                    1.0000     6.11922800    -0.26759200    -2.17440100
   19 H                    1.0000     7.33582000     1.02272800    -2.11051500
   20 H                    1.0000     6.95405800    -0.79234400     1.29370500
   21 H                    1.0000     1.25243100     2.97077700    -0.26093800
   22 H                    1.0000     3.69159900     3.24118700    -0.39090700
   23 H                    1.0000     4.17545400    -1.01949000    -0.90184200
   24 C                    6.0000     1.53983500    -1.61325700    -0.79907700
   25 H                    1.0000    -0.24360300    -2.78083200    -0.80752300
   26 H                    1.0000     2.17059500    -2.49149000    -0.93974300
   27 H                    1.0000    -0.79312000     1.46970600    -0.29606500
   28 C                    6.0000    -2.67699900    -2.00991100    -0.55356400
   29 H                    1.0000    -2.37083800    -2.68481400     0.26014000
   30 H                    1.0000    -2.49433400    -2.48962600    -1.52716600
   31 H                    1.0000    -3.74540600    -1.79437000    -0.45621600

         Total DFT energy =     -767.628923657022
         Total DFT energy =     -767.628923654605

                       DFT Final Molecular Orbital Analysis
                       ------------------------------------

 Vector    1  Occ=2.000000D+00  E=-1.882019D+01

 Vector  530  Occ=0.000000D+00  E= 4.534788D+00

 Vector  531  Occ=0.000000D+00  E= 4.562531D+00

 Vector  532  Occ=0.000000D+00  E= 4.588331D+00

 Vector  533  Occ=0.000000D+00  E= 4.660200D+00

 Vector  534  Occ=0.000000D+00  E= 4.666662D+00

 Vector  535  Occ=0.000000D+00  E= 4.683854D+00

 Vector  536  Occ=0.000000D+00  E= 4.693935D+00

 Vector  537  Occ=0.000000D+00  E= 4.720485D+00

 Vector  538  Occ=0.000000D+00  E= 4.735697D+00

 Vector  539  Occ=0.000000D+00  E= 4.765730D+00

 Vector  540  Occ=0.000000D+00  E= 4.807984D+00

 Vector  541  Occ=0.000000D+00  E= 4.832771D+00

 Vector  542  Occ=0.000000D+00  E= 4.878542D+00

 Vector  543  Occ=0.000000D+00  E= 4.940341D+00

 Vector  544  Occ=0.000000D+00  E= 4.956157D+00

 Vector  545  Occ=0.000000D+00  E= 5.028608D+00

 Vector  546  Occ=0.000000D+00  E= 5.042144D+00

 Vector  547  Occ=0.000000D+00  E= 5.053662D+00

 Vector  548  Occ=0.000000D+00  E= 5.079701D+00

 Vector  549  Occ=0.000000D+00  E= 5.098855D+00

 Vector  550  Occ=0.000000D+00  E= 5.099453D+00

 Vector  551  Occ=0.000000D+00  E= 5.118085D+00

 Vector  552  Occ=0.000000D+00  E= 5.197075D+00

 Vector  553  Occ=0.000000D+00  E= 5.215647D+00

 Vector  554  Occ=0.000000D+00  E= 5.244032D+00

 Vector  555  Occ=0.000000D+00  E= 5.266060D+00

 Vector  556  Occ=0.000000D+00  E= 5.273025D+00

 Vector  557  Occ=0.000000D+00  E= 5.290543D+00

 Vector  558  Occ=0.000000D+00  E= 5.320490D+00

 Vector  559  Occ=0.000000D+00  E= 5.383864D+00

 Vector  560  Occ=0.000000D+00  E= 5.394882D+00

 Vector  561  Occ=0.000000D+00  E= 5.460404D+00

 Vector  562  Occ=0.000000D+00  E= 5.505256D+00

 Vector  563  Occ=0.000000D+00  E= 5.532688D+00

 Vector  564  Occ=0.000000D+00  E= 5.577733D+00

 Vector  565  Occ=0.000000D+00  E= 5.601114D+00

 Vector  566  Occ=0.000000D+00  E= 5.611031D+00

 Vector  567  Occ=0.000000D+00  E= 5.735116D+00

 Vector  568  Occ=0.000000D+00  E= 5.748767D+00

 Vector  569  Occ=0.000000D+00  E= 5.753112D+00

 Vector  570  Occ=0.000000D+00  E= 5.814024D+00

 Vector  571  Occ=0.000000D+00  E= 5.882810D+00

 Vector  572  Occ=0.000000D+00  E= 6.049057D+00

 Vector  573  Occ=0.000000D+00  E= 6.094576D+00

 Vector  574  Occ=0.000000D+00  E= 6.199421D+00

 Vector  575  Occ=0.000000D+00  E= 6.221125D+00

 Vector  576  Occ=0.000000D+00  E= 6.228150D+00

 Vector  577  Occ=0.000000D+00  E= 6.333797D+00

 Vector  578  Occ=0.000000D+00  E= 6.356817D+00

 Vector  579  Occ=0.000000D+00  E= 6.359109D+00

 Vector  580  Occ=0.000000D+00  E= 6.490513D+00

 Vector  581  Occ=0.000000D+00  E= 6.519122D+00

 Vector  582  Occ=0.000000D+00  E= 6.574211D+00

 Vector  583  Occ=0.000000D+00  E= 6.635137D+00

 Vector  584  Occ=0.000000D+00  E= 6.646080D+00

 Vector  585  Occ=0.000000D+00  E= 6.701042D+00

 Vector  586  Occ=0.000000D+00  E= 6.713172D+00

 Vector  587  Occ=0.000000D+00  E= 6.780659D+00

 Vector  588  Occ=0.000000D+00  E= 6.945988D+00

 Vector  589  Occ=0.000000D+00  E= 6.976312D+00

 Vector  590  Occ=0.000000D+00  E= 7.025178D+00

 Vector  591  Occ=0.000000D+00  E= 7.167309D+00

 Vector  592  Occ=0.000000D+00  E= 7.281876D+00

 Vector  593  Occ=0.000000D+00  E= 2.177660D+01

 Vector  594  Occ=0.000000D+00  E= 2.200092D+01

 Vector  595  Occ=0.000000D+00  E= 2.206320D+01

 Vector  596  Occ=0.000000D+00  E= 2.222936D+01

 Vector  597  Occ=0.000000D+00  E= 2.233907D+01

 Vector  598  Occ=0.000000D+00  E= 2.237057D+01

 Vector  599  Occ=0.000000D+00  E= 2.239431D+01

 Vector  600  Occ=0.000000D+00  E= 2.246062D+01

 Vector  601  Occ=0.000000D+00  E= 2.252202D+01

 Vector  602  Occ=0.000000D+00  E= 2.260044D+01

 Vector  603  Occ=0.000000D+00  E= 2.271432D+01

 Vector  604  Occ=0.000000D+00  E= 2.277074D+01

 Vector  605  Occ=0.000000D+00  E= 2.286417D+01

 Vector  606  Occ=0.000000D+00  E= 2.326192D+01

 Vector  607  Occ=0.000000D+00  E= 4.335781D+01

 Vector  608  Occ=0.000000D+00  E= 4.344974D+01

 Vector  609  Occ=0.000000D+00  E= 4.376641D+01

     Multipole analysis of the density
     ---------------------------------

     L   x y z        total         alpha         beta         nuclear
     -   - - -        -----         -----         ----         -------
     0   0 0 0     -0.000000    -61.000000    -61.000000    122.000000

     1   1 0 0     -0.548401   -301.733987   -301.733987    602.919573
     1   0 1 0     -1.008821    -19.365437    -19.365437     37.722053
     1   0 0 1     -0.543490     50.882384     50.882384   -102.308257

     2   2 0 0    -74.259097  -3657.367367  -3657.367367   7240.475636
     2   1 1 0     -3.730398   -587.047794   -587.047794   1170.365191
     2   1 0 1     -5.675687    135.006870    135.006870   -275.689426
     2   0 2 0    -68.593675   -459.224646   -459.224646    849.855617
     2   0 1 1     -2.863929    -16.960768    -16.960768     31.057607

 Total times  cpu:     8042.5s     wall:     8343.8s
