============================== echo of input deck ==============================
echo
start naproxen_355.9_000.inp
title "naproxen roa calculations at 355.9 nm"
charge 0

geometry units angstrom nocenter noautoz noautosym nucleus point;symmetry c1
 O -2.048605 -0.721840 -0.456245
 C -0.674837 -0.646757 -0.541043
 C -0.121449  0.623317 -0.436988
 C  1.280742  0.814044 -0.510481
 C  1.888654  2.099382 -0.404783
 C  3.258877  2.245662 -0.480267
 C  4.118443  1.123988 -0.672416
 C  3.549889 -0.136576 -0.772394
 C  2.142032 -0.328023 -0.697301
 C  0.169398 -1.778610 -0.724219
 C  5.634881  1.350781 -0.764054
 C  6.329694  0.808178  0.491346
 O  6.541226 -0.550744  0.437182
 O  6.660201  1.475679  1.451632
 C  6.258275  0.813497 -2.075214
 H  5.805717  2.432788 -0.713085
 H  5.783750  1.303910 -2.934209
 H  6.120036 -0.267962 -2.175928
 H  7.335476  1.023528 -2.110083
 H  6.954226 -0.794152  1.293169
 H  1.253413  2.973426 -0.260687
 H  3.699429  3.238749 -0.391841
 H  4.181605 -1.014996 -0.901885
 C  1.540695 -1.611935 -0.798985
 H -0.253240 -2.776231 -0.806365
 H  2.180166 -2.483691 -0.939531
 H -0.783332  1.476876 -0.295943
 C -2.680932 -2.008541 -0.553144
 H -2.359134 -2.679527  0.257524
 H -2.482311 -2.484864 -1.525086
 H -3.753242 -1.813967 -0.457828
end

basis spherical
* library def2-TZVP
end

 set prop:newaoresp 1
 set aor:roadata T
 set cphf:maxsub 100
 set cphf:acc 1.0d-10
 set cphf:maxiter 100

property
    response 1   0.128023
    bdtensor
    convergence 1e-7
    damping 0.0037
    giao
end

dft
 direct
 mult 1
 xc becke88 lyp
 iterations 250
 tolerances tight
 grid xfine
 convergence nolevelshifting
 convergence energy 1e-6
 convergence gradient 1e-6

end

task dft gradient
task dft property
================================================================================

 Output coordinates in angstroms (scale by  1.889725989 to convert to a.u.)

  No.       Tag          Charge          X              Y              Z
 ---- ---------------- ---------- -------------- -------------- --------------
    1 O                    8.0000    -2.04860500    -0.72184000    -0.45624500
    2 C                    6.0000    -0.67483700    -0.64675700    -0.54104300
    3 C                    6.0000    -0.12144900     0.62331700    -0.43698800
    4 C                    6.0000     1.28074200     0.81404400    -0.51048100
    5 C                    6.0000     1.88865400     2.09938200    -0.40478300
    6 C                    6.0000     3.25887700     2.24566200    -0.48026700
    7 C                    6.0000     4.11844300     1.12398800    -0.67241600
    8 C                    6.0000     3.54988900    -0.13657600    -0.77239400
    9 C                    6.0000     2.14203200    -0.32802300    -0.69730100
   10 C                    6.0000     0.16939800    -1.77861000    -0.72421900
   11 C                    6.0000     5.63488100     1.35078100    -0.76405400
   12 C                    6.0000     6.32969400     0.80817800     0.49134600
   13 O                    8.0000     6.54122600    -0.55074400     0.43718200
   14 O                    8.0000     6.66020100     1.47567900     1.45163200
   15 C                    6.0000     6.25827500     0.81349700    -2.07521400
   16 H                    1.0000     5.80571700     2.43278800    -0.71308500
   17 H                    1.0000     5.78375000     1.30391000    -2.93420900
   18 H                    1.0000     6.12003600    -0.26796200    -2.17592800
   19 H                    1.0000     7.33547600     1.02352800    -2.11008300
   20 H                    1.0000     6.95422600    -0.79415200     1.29316900
   21 H                    1.0000     1.25341300     2.97342600    -0.26068700
   22 H                    1.0000     3.69942900     3.23874900    -0.39184100
   23 H                    1.0000     4.18160500    -1.01499600    -0.90188500
   24 C                    6.0000     1.54069500    -1.61193500    -0.79898500
   25 H                    1.0000    -0.25324000    -2.77623100    -0.80636500
   26 H                    1.0000     2.18016600    -2.48369100    -0.93953100
   27 H                    1.0000    -0.78333200     1.47687600    -0.29594300
   28 C                    6.0000    -2.68093200    -2.00854100    -0.55314400
   29 H                    1.0000    -2.35913400    -2.67952700     0.25752400
   30 H                    1.0000    -2.48231100    -2.48486400    -1.52508600
   31 H                    1.0000    -3.75324200    -1.81396700    -0.45782800

         Total DFT energy =     -767.629124869498
         Total DFT energy =     -767.629124867419

                       DFT Final Molecular Orbital Analysis
                       ------------------------------------

 Vector    1  Occ=2.000000D+00  E=-1.882024D+01

 Vector  530  Occ=0.000000D+00  E= 4.534858D+00

 Vector  531  Occ=0.000000D+00  E= 4.563336D+00

 Vector  532  Occ=0.000000D+00  E= 4.586518D+00

 Vector  533  Occ=0.000000D+00  E= 4.660604D+00

 Vector  534  Occ=0.000000D+00  E= 4.667349D+00

 Vector  535  Occ=0.000000D+00  E= 4.683064D+00

 Vector  536  Occ=0.000000D+00  E= 4.693801D+00

 Vector  537  Occ=0.000000D+00  E= 4.720876D+00

 Vector  538  Occ=0.000000D+00  E= 4.736101D+00

 Vector  539  Occ=0.000000D+00  E= 4.765358D+00

 Vector  540  Occ=0.000000D+00  E= 4.808931D+00

 Vector  541  Occ=0.000000D+00  E= 4.833698D+00

 Vector  542  Occ=0.000000D+00  E= 4.877777D+00

 Vector  543  Occ=0.000000D+00  E= 4.942274D+00

 Vector  544  Occ=0.000000D+00  E= 4.956306D+00

 Vector  545  Occ=0.000000D+00  E= 5.028314D+00

 Vector  546  Occ=0.000000D+00  E= 5.042245D+00

 Vector  547  Occ=0.000000D+00  E= 5.052549D+00

 Vector  548  Occ=0.000000D+00  E= 5.079882D+00

 Vector  549  Occ=0.000000D+00  E= 5.098661D+00

 Vector  550  Occ=0.000000D+00  E= 5.099299D+00

 Vector  551  Occ=0.000000D+00  E= 5.117848D+00

 Vector  552  Occ=0.000000D+00  E= 5.200250D+00

 Vector  553  Occ=0.000000D+00  E= 5.215353D+00

 Vector  554  Occ=0.000000D+00  E= 5.241948D+00

 Vector  555  Occ=0.000000D+00  E= 5.264829D+00

 Vector  556  Occ=0.000000D+00  E= 5.272855D+00

 Vector  557  Occ=0.000000D+00  E= 5.291105D+00

 Vector  558  Occ=0.000000D+00  E= 5.318320D+00

 Vector  559  Occ=0.000000D+00  E= 5.384166D+00

 Vector  560  Occ=0.000000D+00  E= 5.393280D+00

 Vector  561  Occ=0.000000D+00  E= 5.461439D+00

 Vector  562  Occ=0.000000D+00  E= 5.502077D+00

 Vector  563  Occ=0.000000D+00  E= 5.534944D+00

 Vector  564  Occ=0.000000D+00  E= 5.575066D+00

 Vector  565  Occ=0.000000D+00  E= 5.601381D+00

 Vector  566  Occ=0.000000D+00  E= 5.611703D+00

 Vector  567  Occ=0.000000D+00  E= 5.735646D+00

 Vector  568  Occ=0.000000D+00  E= 5.752737D+00

 Vector  569  Occ=0.000000D+00  E= 5.753700D+00

 Vector  570  Occ=0.000000D+00  E= 5.811600D+00

 Vector  571  Occ=0.000000D+00  E= 5.885936D+00

 Vector  572  Occ=0.000000D+00  E= 6.049560D+00

 Vector  573  Occ=0.000000D+00  E= 6.095052D+00

 Vector  574  Occ=0.000000D+00  E= 6.199538D+00

 Vector  575  Occ=0.000000D+00  E= 6.222145D+00

 Vector  576  Occ=0.000000D+00  E= 6.228956D+00

 Vector  577  Occ=0.000000D+00  E= 6.333868D+00

 Vector  578  Occ=0.000000D+00  E= 6.357312D+00

 Vector  579  Occ=0.000000D+00  E= 6.362342D+00

 Vector  580  Occ=0.000000D+00  E= 6.492636D+00

 Vector  581  Occ=0.000000D+00  E= 6.519481D+00

 Vector  582  Occ=0.000000D+00  E= 6.574607D+00

 Vector  583  Occ=0.000000D+00  E= 6.635864D+00

 Vector  584  Occ=0.000000D+00  E= 6.647288D+00

 Vector  585  Occ=0.000000D+00  E= 6.701315D+00

 Vector  586  Occ=0.000000D+00  E= 6.714459D+00

 Vector  587  Occ=0.000000D+00  E= 6.780859D+00

 Vector  588  Occ=0.000000D+00  E= 6.946618D+00

 Vector  589  Occ=0.000000D+00  E= 6.976792D+00

 Vector  590  Occ=0.000000D+00  E= 7.024771D+00

 Vector  591  Occ=0.000000D+00  E= 7.167839D+00

 Vector  592  Occ=0.000000D+00  E= 7.281747D+00

 Vector  593  Occ=0.000000D+00  E= 2.177786D+01

 Vector  594  Occ=0.000000D+00  E= 2.200086D+01

 Vector  595  Occ=0.000000D+00  E= 2.206282D+01

 Vector  596  Occ=0.000000D+00  E= 2.222876D+01

 Vector  597  Occ=0.000000D+00  E= 2.233868D+01

 Vector  598  Occ=0.000000D+00  E= 2.237286D+01

 Vector  599  Occ=0.000000D+00  E= 2.239471D+01

 Vector  600  Occ=0.000000D+00  E= 2.245742D+01

 Vector  601  Occ=0.000000D+00  E= 2.252184D+01

 Vector  602  Occ=0.000000D+00  E= 2.260113D+01

 Vector  603  Occ=0.000000D+00  E= 2.271390D+01

 Vector  604  Occ=0.000000D+00  E= 2.277240D+01

 Vector  605  Occ=0.000000D+00  E= 2.286722D+01

 Vector  606  Occ=0.000000D+00  E= 2.326168D+01

 Vector  607  Occ=0.000000D+00  E= 4.335844D+01

 Vector  608  Occ=0.000000D+00  E= 4.344987D+01

 Vector  609  Occ=0.000000D+00  E= 4.376522D+01

     Multipole analysis of the density
     ---------------------------------

     L   x y z        total         alpha         beta         nuclear
     -   - - -        -----         -----         ----         -------
     0   0 0 0     -0.000000    -61.000000    -61.000000    122.000000

     1   1 0 0     -0.554247   -301.755794   -301.755794    602.957341
     1   0 1 0     -1.010679    -19.373393    -19.373393     37.736106
     1   0 0 1     -0.542605     50.884415     50.884415   -102.311436

     2   2 0 0    -74.145669  -3657.498556  -3657.498556   7240.851442
     2   1 1 0     -3.710278   -587.186064   -587.186064   1170.661849
     2   1 0 1     -5.665919    135.039251    135.039251   -275.744420
     2   0 2 0    -68.628036   -459.124721   -459.124721    849.621406
     2   0 1 1     -2.874581    -16.924137    -16.924137     30.973693

 Total times  cpu:     9405.5s     wall:     9778.8s
