============================== echo of input deck ==============================
echo
start naproxen_355.9_137.inp
title "naproxen roa calculations at 355.9 nm"
charge 0

geometry units angstrom nocenter noautoz noautosym nucleus point;symmetry c1
 O -2.047199 -0.721614 -0.456315
 C -0.676299 -0.647876 -0.541069
 C -0.120608  0.623944 -0.436974
 C  1.279254  0.814256 -0.510353
 C  1.889864  2.099983 -0.404785
 C  3.257193  2.246742 -0.480054
 C  4.121217  1.124014 -0.672576
 C  3.550016 -0.137552 -0.772531
 C  2.141339 -0.329071 -0.697375
 C  0.170594 -1.778180 -0.724252
 C  5.633485  1.350828 -0.764104
 C  6.329949  0.807887  0.491452
 O  6.541230 -0.550506  0.437346
 O  6.660105  1.475570  1.451484
 C  6.258680  0.813190 -2.075182
 H  5.801533  2.433230 -0.713146
 H  5.782602  1.304395 -2.932907
 H  6.119106 -0.267998 -2.176776
 H  7.335671  1.023848 -2.111196
 H  6.954234 -0.795917  1.292706
 H  1.267030  2.983080 -0.260595
 H  3.680317  3.247474 -0.389263
 H  4.176355 -1.020039 -0.901866
 C  1.539952 -1.612167 -0.798963
 H -0.238922 -2.781263 -0.807903
 H  2.169989 -2.490772 -0.939605
 H -0.774120  1.483911 -0.295790
 C -2.682152 -2.008698 -0.553078
 H -2.355848 -2.678004  0.257002
 H -2.478961 -2.483445 -1.524700
 H -3.754917 -1.817074 -0.458044
end

basis spherical
* library def2-TZVP
end

 set prop:newaoresp 1
 set aor:roadata T
 set cphf:maxsub 100
 set cphf:acc 1.0d-10
 set cphf:maxiter 100

property
    response 1   0.128023
    bdtensor
    convergence 1e-7
    damping 0.0037
    giao
end

dft
 direct
 mult 1
 xc becke88 lyp
 iterations 250
 tolerances tight
 grid xfine
 convergence nolevelshifting
 convergence energy 1e-6
 convergence gradient 1e-6

end

task dft gradient
task dft property
================================================================================

 Output coordinates in angstroms (scale by  1.889725989 to convert to a.u.)

  No.       Tag          Charge          X              Y              Z
 ---- ---------------- ---------- -------------- -------------- --------------
    1 O                    8.0000    -2.04719900    -0.72161400    -0.45631500
    2 C                    6.0000    -0.67629900    -0.64787600    -0.54106900
    3 C                    6.0000    -0.12060800     0.62394400    -0.43697400
    4 C                    6.0000     1.27925400     0.81425600    -0.51035300
    5 C                    6.0000     1.88986400     2.09998300    -0.40478500
    6 C                    6.0000     3.25719300     2.24674200    -0.48005400
    7 C                    6.0000     4.12121700     1.12401400    -0.67257600
    8 C                    6.0000     3.55001600    -0.13755200    -0.77253100
    9 C                    6.0000     2.14133900    -0.32907100    -0.69737500
   10 C                    6.0000     0.17059400    -1.77818000    -0.72425200
   11 C                    6.0000     5.63348500     1.35082800    -0.76410400
   12 C                    6.0000     6.32994900     0.80788700     0.49145200
   13 O                    8.0000     6.54123000    -0.55050600     0.43734600
   14 O                    8.0000     6.66010500     1.47557000     1.45148400
   15 C                    6.0000     6.25868000     0.81319000    -2.07518200
   16 H                    1.0000     5.80153300     2.43323000    -0.71314600
   17 H                    1.0000     5.78260200     1.30439500    -2.93290700
   18 H                    1.0000     6.11910600    -0.26799800    -2.17677600
   19 H                    1.0000     7.33567100     1.02384800    -2.11119600
   20 H                    1.0000     6.95423400    -0.79591700     1.29270600
   21 H                    1.0000     1.26703000     2.98308000    -0.26059500
   22 H                    1.0000     3.68031700     3.24747400    -0.38926300
   23 H                    1.0000     4.17635500    -1.02003900    -0.90186600
   24 C                    6.0000     1.53995200    -1.61216700    -0.79896300
   25 H                    1.0000    -0.23892200    -2.78126300    -0.80790300
   26 H                    1.0000     2.16998900    -2.49077200    -0.93960500
   27 H                    1.0000    -0.77412000     1.48391100    -0.29579000
   28 C                    6.0000    -2.68215200    -2.00869800    -0.55307800
   29 H                    1.0000    -2.35584800    -2.67800400     0.25700200
   30 H                    1.0000    -2.47896100    -2.48344500    -1.52470000
   31 H                    1.0000    -3.75491700    -1.81707400    -0.45804400

         Total DFT energy =     -767.628964919395
         Total DFT energy =     -767.628964916164

                       DFT Final Molecular Orbital Analysis
                       ------------------------------------

 Vector    1  Occ=2.000000D+00  E=-1.882013D+01

 Vector  530  Occ=0.000000D+00  E= 4.536324D+00

 Vector  531  Occ=0.000000D+00  E= 4.562518D+00

 Vector  532  Occ=0.000000D+00  E= 4.588110D+00

 Vector  533  Occ=0.000000D+00  E= 4.659975D+00

 Vector  534  Occ=0.000000D+00  E= 4.666419D+00

 Vector  535  Occ=0.000000D+00  E= 4.681920D+00

 Vector  536  Occ=0.000000D+00  E= 4.693867D+00

 Vector  537  Occ=0.000000D+00  E= 4.720462D+00

 Vector  538  Occ=0.000000D+00  E= 4.734681D+00

 Vector  539  Occ=0.000000D+00  E= 4.763050D+00

 Vector  540  Occ=0.000000D+00  E= 4.806773D+00

 Vector  541  Occ=0.000000D+00  E= 4.832552D+00

 Vector  542  Occ=0.000000D+00  E= 4.878488D+00

 Vector  543  Occ=0.000000D+00  E= 4.940496D+00

 Vector  544  Occ=0.000000D+00  E= 4.956500D+00

 Vector  545  Occ=0.000000D+00  E= 5.028777D+00

 Vector  546  Occ=0.000000D+00  E= 5.040521D+00

 Vector  547  Occ=0.000000D+00  E= 5.052633D+00

 Vector  548  Occ=0.000000D+00  E= 5.080118D+00

 Vector  549  Occ=0.000000D+00  E= 5.098934D+00

 Vector  550  Occ=0.000000D+00  E= 5.099376D+00

 Vector  551  Occ=0.000000D+00  E= 5.120650D+00

 Vector  552  Occ=0.000000D+00  E= 5.198564D+00

 Vector  553  Occ=0.000000D+00  E= 5.215591D+00

 Vector  554  Occ=0.000000D+00  E= 5.241995D+00

 Vector  555  Occ=0.000000D+00  E= 5.265821D+00

 Vector  556  Occ=0.000000D+00  E= 5.272986D+00

 Vector  557  Occ=0.000000D+00  E= 5.289641D+00

 Vector  558  Occ=0.000000D+00  E= 5.321118D+00

 Vector  559  Occ=0.000000D+00  E= 5.384592D+00

 Vector  560  Occ=0.000000D+00  E= 5.392105D+00

 Vector  561  Occ=0.000000D+00  E= 5.462551D+00

 Vector  562  Occ=0.000000D+00  E= 5.501364D+00

 Vector  563  Occ=0.000000D+00  E= 5.537811D+00

 Vector  564  Occ=0.000000D+00  E= 5.578689D+00

 Vector  565  Occ=0.000000D+00  E= 5.601891D+00

 Vector  566  Occ=0.000000D+00  E= 5.612470D+00

 Vector  567  Occ=0.000000D+00  E= 5.736327D+00

 Vector  568  Occ=0.000000D+00  E= 5.754379D+00

 Vector  569  Occ=0.000000D+00  E= 5.756221D+00

 Vector  570  Occ=0.000000D+00  E= 5.811856D+00

 Vector  571  Occ=0.000000D+00  E= 5.888065D+00

 Vector  572  Occ=0.000000D+00  E= 6.050238D+00

 Vector  573  Occ=0.000000D+00  E= 6.095539D+00

 Vector  574  Occ=0.000000D+00  E= 6.199744D+00

 Vector  575  Occ=0.000000D+00  E= 6.221797D+00

 Vector  576  Occ=0.000000D+00  E= 6.229685D+00

 Vector  577  Occ=0.000000D+00  E= 6.333928D+00

 Vector  578  Occ=0.000000D+00  E= 6.357416D+00

 Vector  579  Occ=0.000000D+00  E= 6.366952D+00

 Vector  580  Occ=0.000000D+00  E= 6.493043D+00

 Vector  581  Occ=0.000000D+00  E= 6.519710D+00

 Vector  582  Occ=0.000000D+00  E= 6.575059D+00

 Vector  583  Occ=0.000000D+00  E= 6.636538D+00

 Vector  584  Occ=0.000000D+00  E= 6.647136D+00

 Vector  585  Occ=0.000000D+00  E= 6.701607D+00

 Vector  586  Occ=0.000000D+00  E= 6.715085D+00

 Vector  587  Occ=0.000000D+00  E= 6.781067D+00

 Vector  588  Occ=0.000000D+00  E= 6.947323D+00

 Vector  589  Occ=0.000000D+00  E= 6.977289D+00

 Vector  590  Occ=0.000000D+00  E= 7.024708D+00

 Vector  591  Occ=0.000000D+00  E= 7.168438D+00

 Vector  592  Occ=0.000000D+00  E= 7.282966D+00

 Vector  593  Occ=0.000000D+00  E= 2.177910D+01

 Vector  594  Occ=0.000000D+00  E= 2.199733D+01

 Vector  595  Occ=0.000000D+00  E= 2.206245D+01

 Vector  596  Occ=0.000000D+00  E= 2.222896D+01

 Vector  597  Occ=0.000000D+00  E= 2.234024D+01

 Vector  598  Occ=0.000000D+00  E= 2.237494D+01

 Vector  599  Occ=0.000000D+00  E= 2.239379D+01

 Vector  600  Occ=0.000000D+00  E= 2.246286D+01

 Vector  601  Occ=0.000000D+00  E= 2.252504D+01

 Vector  602  Occ=0.000000D+00  E= 2.259825D+01

 Vector  603  Occ=0.000000D+00  E= 2.271263D+01

 Vector  604  Occ=0.000000D+00  E= 2.276928D+01

 Vector  605  Occ=0.000000D+00  E= 2.286688D+01

 Vector  606  Occ=0.000000D+00  E= 2.326048D+01

 Vector  607  Occ=0.000000D+00  E= 4.335911D+01

 Vector  608  Occ=0.000000D+00  E= 4.344990D+01

 Vector  609  Occ=0.000000D+00  E= 4.376436D+01

     Multipole analysis of the density
     ---------------------------------

     L   x y z        total         alpha         beta         nuclear
     -   - - -        -----         -----         ----         -------
     0   0 0 0     -0.000000    -61.000000    -61.000000    122.000000

     1   1 0 0     -0.568722   -301.763744   -301.763744    602.958766
     1   0 1 0     -1.018032    -19.380600    -19.380600     37.743168
     1   0 0 1     -0.541283     50.885211     50.885211   -102.311706

     2   2 0 0    -74.230683  -3656.997436  -3656.997436   7239.764188
     2   1 1 0     -3.727521   -587.105062   -587.105062   1170.482604
     2   1 0 1     -5.635103    135.036442    135.036442   -275.707988
     2   0 2 0    -68.528184   -459.546003   -459.546003    850.563821
     2   0 1 1     -2.860476    -16.961013    -16.961013     31.061550

 Total times  cpu:     9760.0s     wall:    10162.3s
