============================== echo of input deck ==============================
echo
start naproxen_355.9_052.inp
title "naproxen roa calculations at 355.9 nm"
charge 0

geometry units angstrom nocenter noautoz noautosym nucleus point;symmetry c1
 O -2.044725 -0.721484 -0.456469
 C -0.679171 -0.646077 -0.540677
 C -0.122811  0.621654 -0.437083
 C  1.281201  0.816325 -0.510245
 C  1.888842  2.096754 -0.405109
 C  3.259486  2.244958 -0.480411
 C  4.113892  1.127221 -0.671533
 C  3.549282 -0.138253 -0.772593
 C  2.147341 -0.321686 -0.696946
 C  0.168355 -1.780169 -0.724318
 C  5.634326  1.349807 -0.764789
 C  6.329982  0.808394  0.490977
 O  6.541073 -0.551062  0.436752
 O  6.660381  1.476158  1.452335
 C  6.258927  0.814497 -2.074913
 H  5.821255  2.429358 -0.711670
 H  5.782625  1.302330 -2.934456
 H  6.117970 -0.266903 -2.173431
 H  7.336538  1.021830 -2.112466
 H  6.953837 -0.790173  1.294244
 H  1.256774  2.972899 -0.260937
 H  3.705637  3.235294 -0.392601
 H  4.164916 -1.028016 -0.901786
 C  1.542189 -1.614999 -0.799435
 H -0.263219 -2.774381 -0.805474
 H  2.174256 -2.492730 -0.940125
 H -0.774870  1.482809 -0.295847
 C -2.683495 -2.008925 -0.553010
 H -2.351745 -2.676062  0.256486
 H -2.474803 -2.481611 -1.524338
 H -3.756992 -1.821955 -0.458449
end

basis spherical
* library def2-TZVP
end

 set prop:newaoresp 1
 set aor:roadata T
 set cphf:maxsub 100
 set cphf:acc 1.0d-10
 set cphf:maxiter 100

property
    response 1   0.128023
    bdtensor
    convergence 1e-7
    damping 0.0037
    giao
end

dft
 direct
 mult 1
 xc becke88 lyp
 iterations 250
 tolerances tight
 grid xfine
 convergence nolevelshifting
 convergence energy 1e-6
 convergence gradient 1e-6

end

task dft gradient
task dft property
================================================================================

 Output coordinates in angstroms (scale by  1.889725989 to convert to a.u.)

  No.       Tag          Charge          X              Y              Z
 ---- ---------------- ---------- -------------- -------------- --------------
    1 O                    8.0000    -2.04472500    -0.72148400    -0.45646900
    2 C                    6.0000    -0.67917100    -0.64607700    -0.54067700
    3 C                    6.0000    -0.12281100     0.62165400    -0.43708300
    4 C                    6.0000     1.28120100     0.81632500    -0.51024500
    5 C                    6.0000     1.88884200     2.09675400    -0.40510900
    6 C                    6.0000     3.25948600     2.24495800    -0.48041100
    7 C                    6.0000     4.11389200     1.12722100    -0.67153300
    8 C                    6.0000     3.54928200    -0.13825300    -0.77259300
    9 C                    6.0000     2.14734100    -0.32168600    -0.69694600
   10 C                    6.0000     0.16835500    -1.78016900    -0.72431800
   11 C                    6.0000     5.63432600     1.34980700    -0.76478900
   12 C                    6.0000     6.32998200     0.80839400     0.49097700
   13 O                    8.0000     6.54107300    -0.55106200     0.43675200
   14 O                    8.0000     6.66038100     1.47615800     1.45233500
   15 C                    6.0000     6.25892700     0.81449700    -2.07491300
   16 H                    1.0000     5.82125500     2.42935800    -0.71167000
   17 H                    1.0000     5.78262500     1.30233000    -2.93445600
   18 H                    1.0000     6.11797000    -0.26690300    -2.17343100
   19 H                    1.0000     7.33653800     1.02183000    -2.11246600
   20 H                    1.0000     6.95383700    -0.79017300     1.29424400
   21 H                    1.0000     1.25677400     2.97289900    -0.26093700
   22 H                    1.0000     3.70563700     3.23529400    -0.39260100
   23 H                    1.0000     4.16491600    -1.02801600    -0.90178600
   24 C                    6.0000     1.54218900    -1.61499900    -0.79943500
   25 H                    1.0000    -0.26321900    -2.77438100    -0.80547400
   26 H                    1.0000     2.17425600    -2.49273000    -0.94012500
   27 H                    1.0000    -0.77487000     1.48280900    -0.29584700
   28 C                    6.0000    -2.68349500    -2.00892500    -0.55301000
   29 H                    1.0000    -2.35174500    -2.67606200     0.25648600
   30 H                    1.0000    -2.47480300    -2.48161100    -1.52433800
   31 H                    1.0000    -3.75699200    -1.82195500    -0.45844900

         Total DFT energy =     -767.628760410342
         Total DFT energy =     -767.628760415765

                       DFT Final Molecular Orbital Analysis
                       ------------------------------------

 Vector    1  Occ=2.000000D+00  E=-1.881999D+01

 Vector  530  Occ=0.000000D+00  E= 4.535124D+00

 Vector  531  Occ=0.000000D+00  E= 4.563432D+00

 Vector  532  Occ=0.000000D+00  E= 4.585423D+00

 Vector  533  Occ=0.000000D+00  E= 4.655357D+00

 Vector  534  Occ=0.000000D+00  E= 4.666449D+00

 Vector  535  Occ=0.000000D+00  E= 4.683062D+00

 Vector  536  Occ=0.000000D+00  E= 4.697046D+00

 Vector  537  Occ=0.000000D+00  E= 4.719311D+00

 Vector  538  Occ=0.000000D+00  E= 4.734383D+00

 Vector  539  Occ=0.000000D+00  E= 4.765046D+00

 Vector  540  Occ=0.000000D+00  E= 4.805602D+00

 Vector  541  Occ=0.000000D+00  E= 4.836404D+00

 Vector  542  Occ=0.000000D+00  E= 4.878175D+00

 Vector  543  Occ=0.000000D+00  E= 4.938978D+00

 Vector  544  Occ=0.000000D+00  E= 4.957802D+00

 Vector  545  Occ=0.000000D+00  E= 5.027466D+00

 Vector  546  Occ=0.000000D+00  E= 5.040161D+00

 Vector  547  Occ=0.000000D+00  E= 5.052565D+00

 Vector  548  Occ=0.000000D+00  E= 5.079747D+00

 Vector  549  Occ=0.000000D+00  E= 5.099482D+00

 Vector  550  Occ=0.000000D+00  E= 5.100991D+00

 Vector  551  Occ=0.000000D+00  E= 5.116766D+00

 Vector  552  Occ=0.000000D+00  E= 5.203143D+00

 Vector  553  Occ=0.000000D+00  E= 5.216259D+00

 Vector  554  Occ=0.000000D+00  E= 5.239304D+00

 Vector  555  Occ=0.000000D+00  E= 5.265079D+00

 Vector  556  Occ=0.000000D+00  E= 5.273424D+00

 Vector  557  Occ=0.000000D+00  E= 5.291449D+00

 Vector  558  Occ=0.000000D+00  E= 5.318695D+00

 Vector  559  Occ=0.000000D+00  E= 5.383121D+00

 Vector  560  Occ=0.000000D+00  E= 5.391357D+00

 Vector  561  Occ=0.000000D+00  E= 5.459605D+00

 Vector  562  Occ=0.000000D+00  E= 5.508936D+00

 Vector  563  Occ=0.000000D+00  E= 5.526958D+00

 Vector  564  Occ=0.000000D+00  E= 5.573507D+00

 Vector  565  Occ=0.000000D+00  E= 5.603641D+00

 Vector  566  Occ=0.000000D+00  E= 5.610580D+00

 Vector  567  Occ=0.000000D+00  E= 5.734613D+00

 Vector  568  Occ=0.000000D+00  E= 5.753107D+00

 Vector  569  Occ=0.000000D+00  E= 5.762914D+00

 Vector  570  Occ=0.000000D+00  E= 5.808962D+00

 Vector  571  Occ=0.000000D+00  E= 5.891900D+00

 Vector  572  Occ=0.000000D+00  E= 6.047575D+00

 Vector  573  Occ=0.000000D+00  E= 6.093684D+00

 Vector  574  Occ=0.000000D+00  E= 6.199498D+00

 Vector  575  Occ=0.000000D+00  E= 6.223874D+00

 Vector  576  Occ=0.000000D+00  E= 6.227580D+00

 Vector  577  Occ=0.000000D+00  E= 6.334005D+00

 Vector  578  Occ=0.000000D+00  E= 6.357565D+00

 Vector  579  Occ=0.000000D+00  E= 6.375351D+00

 Vector  580  Occ=0.000000D+00  E= 6.493846D+00

 Vector  581  Occ=0.000000D+00  E= 6.518236D+00

 Vector  582  Occ=0.000000D+00  E= 6.574353D+00

 Vector  583  Occ=0.000000D+00  E= 6.634295D+00

 Vector  584  Occ=0.000000D+00  E= 6.649225D+00

 Vector  585  Occ=0.000000D+00  E= 6.701171D+00

 Vector  586  Occ=0.000000D+00  E= 6.716727D+00

 Vector  587  Occ=0.000000D+00  E= 6.780398D+00

 Vector  588  Occ=0.000000D+00  E= 6.945230D+00

 Vector  589  Occ=0.000000D+00  E= 6.975894D+00

 Vector  590  Occ=0.000000D+00  E= 7.023432D+00

 Vector  591  Occ=0.000000D+00  E= 7.166992D+00

 Vector  592  Occ=0.000000D+00  E= 7.284507D+00

 Vector  593  Occ=0.000000D+00  E= 2.177979D+01

 Vector  594  Occ=0.000000D+00  E= 2.199445D+01

 Vector  595  Occ=0.000000D+00  E= 2.206374D+01

 Vector  596  Occ=0.000000D+00  E= 2.222852D+01

 Vector  597  Occ=0.000000D+00  E= 2.233715D+01

 Vector  598  Occ=0.000000D+00  E= 2.236431D+01

 Vector  599  Occ=0.000000D+00  E= 2.239314D+01

 Vector  600  Occ=0.000000D+00  E= 2.245924D+01

 Vector  601  Occ=0.000000D+00  E= 2.252041D+01

 Vector  602  Occ=0.000000D+00  E= 2.261404D+01

 Vector  603  Occ=0.000000D+00  E= 2.271404D+01

 Vector  604  Occ=0.000000D+00  E= 2.277702D+01

 Vector  605  Occ=0.000000D+00  E= 2.286240D+01

 Vector  606  Occ=0.000000D+00  E= 2.325862D+01

 Vector  607  Occ=0.000000D+00  E= 4.335641D+01

 Vector  608  Occ=0.000000D+00  E= 4.344962D+01

 Vector  609  Occ=0.000000D+00  E= 4.376651D+01

     Multipole analysis of the density
     ---------------------------------

     L   x y z        total         alpha         beta         nuclear
     -   - - -        -----         -----         ----         -------
     0   0 0 0     -0.000000    -61.000000    -61.000000    122.000000

     1   1 0 0     -0.592627   -301.779501   -301.779501    602.966374
     1   0 1 0     -1.025678    -19.370973    -19.370973     37.716268
     1   0 0 1     -0.543800     50.883375     50.883375   -102.310551

     2   2 0 0    -74.218864  -3657.474068  -3657.474068   7240.729272
     2   1 1 0     -3.599200   -587.317604   -587.317604   1171.036009
     2   1 0 1     -5.646193    135.010106    135.010106   -275.666405
     2   0 2 0    -68.620151   -459.238145   -459.238145    849.856138
     2   0 1 1     -2.854641    -16.961994    -16.961994     31.069347

 Total times  cpu:     6427.1s     wall:     6710.8s
