============================== echo of input deck ==============================
echo
start naproxen_355.9_138.inp
title "naproxen roa calculations at 355.9 nm"
charge 0

geometry units angstrom nocenter noautoz noautosym nucleus point;symmetry c1
 O -2.046247 -0.722562 -0.456484
 C -0.674003 -0.648396 -0.541284
 C -0.121037  0.623498 -0.436992
 C  1.278055  0.810940 -0.510656
 C  1.888458  2.100948 -0.404591
 C  3.259208  2.246344 -0.480200
 C  4.118793  1.122702 -0.672617
 C  3.550995 -0.135661 -0.772353
 C  2.139940 -0.329469 -0.697327
 C  0.168008 -1.777639 -0.724016
 C  5.634923  1.351534 -0.763881
 C  6.329739  0.807824  0.491508
 O  6.541259 -0.550486  0.437358
 O  6.660125  1.475561  1.451401
 C  6.258125  0.813081 -2.075243
 H  5.804414  2.433774 -0.713717
 H  5.784094  1.304563 -2.933923
 H  6.120843 -0.268333 -2.177455
 H  7.335132  1.024328 -2.109651
 H  6.954393 -0.795961  1.292633
 H  1.254394  2.976076 -0.260436
 H  3.707260  3.236312 -0.392775
 H  4.187755 -1.010502 -0.901928
 C  1.541554 -1.610613 -0.798893
 H -0.262877 -2.771629 -0.805207
 H  2.189737 -2.475891 -0.939318
 H -0.773544  1.484047 -0.295821
 C -2.684864 -2.007171 -0.552723
 H -2.347431 -2.674239  0.254907
 H -2.470287 -2.480103 -1.523005
 H -3.761079 -1.833564 -0.459441
end

basis spherical
* library def2-TZVP
end

 set prop:newaoresp 1
 set aor:roadata T
 set cphf:maxsub 100
 set cphf:acc 1.0d-10
 set cphf:maxiter 100

property
    response 1   0.128023
    bdtensor
    convergence 1e-7
    damping 0.0037
    giao
end

dft
 direct
 mult 1
 xc becke88 lyp
 iterations 250
 tolerances tight
 grid xfine
 convergence nolevelshifting
 convergence energy 1e-6
 convergence gradient 1e-6

end

task dft gradient
task dft property
================================================================================

 Output coordinates in angstroms (scale by  1.889725989 to convert to a.u.)

  No.       Tag          Charge          X              Y              Z
 ---- ---------------- ---------- -------------- -------------- --------------
    1 O                    8.0000    -2.04624700    -0.72256200    -0.45648400
    2 C                    6.0000    -0.67400300    -0.64839600    -0.54128400
    3 C                    6.0000    -0.12103700     0.62349800    -0.43699200
    4 C                    6.0000     1.27805500     0.81094000    -0.51065600
    5 C                    6.0000     1.88845800     2.10094800    -0.40459100
    6 C                    6.0000     3.25920800     2.24634400    -0.48020000
    7 C                    6.0000     4.11879300     1.12270200    -0.67261700
    8 C                    6.0000     3.55099500    -0.13566100    -0.77235300
    9 C                    6.0000     2.13994000    -0.32946900    -0.69732700
   10 C                    6.0000     0.16800800    -1.77763900    -0.72401600
   11 C                    6.0000     5.63492300     1.35153400    -0.76388100
   12 C                    6.0000     6.32973900     0.80782400     0.49150800
   13 O                    8.0000     6.54125900    -0.55048600     0.43735800
   14 O                    8.0000     6.66012500     1.47556100     1.45140100
   15 C                    6.0000     6.25812500     0.81308100    -2.07524300
   16 H                    1.0000     5.80441400     2.43377400    -0.71371700
   17 H                    1.0000     5.78409400     1.30456300    -2.93392300
   18 H                    1.0000     6.12084300    -0.26833300    -2.17745500
   19 H                    1.0000     7.33513200     1.02432800    -2.10965100
   20 H                    1.0000     6.95439300    -0.79596100     1.29263300
   21 H                    1.0000     1.25439400     2.97607600    -0.26043600
   22 H                    1.0000     3.70726000     3.23631200    -0.39277500
   23 H                    1.0000     4.18775500    -1.01050200    -0.90192800
   24 C                    6.0000     1.54155400    -1.61061300    -0.79889300
   25 H                    1.0000    -0.26287700    -2.77162900    -0.80520700
   26 H                    1.0000     2.18973700    -2.47589100    -0.93931800
   27 H                    1.0000    -0.77354400     1.48404700    -0.29582100
   28 C                    6.0000    -2.68486400    -2.00717100    -0.55272300
   29 H                    1.0000    -2.34743100    -2.67423900     0.25490700
   30 H                    1.0000    -2.47028700    -2.48010300    -1.52300500
   31 H                    1.0000    -3.76107900    -1.83356400    -0.45944100

         Total DFT energy =     -767.628925492398
         Total DFT energy =     -767.628925490718

                       DFT Final Molecular Orbital Analysis
                       ------------------------------------

 Vector    1  Occ=2.000000D+00  E=-1.882030D+01

 Vector  530  Occ=0.000000D+00  E= 4.535055D+00

 Vector  531  Occ=0.000000D+00  E= 4.564112D+00

 Vector  532  Occ=0.000000D+00  E= 4.584722D+00

 Vector  533  Occ=0.000000D+00  E= 4.660961D+00

 Vector  534  Occ=0.000000D+00  E= 4.668082D+00

 Vector  535  Occ=0.000000D+00  E= 4.682225D+00

 Vector  536  Occ=0.000000D+00  E= 4.693623D+00

 Vector  537  Occ=0.000000D+00  E= 4.721227D+00

 Vector  538  Occ=0.000000D+00  E= 4.736508D+00

 Vector  539  Occ=0.000000D+00  E= 4.764897D+00

 Vector  540  Occ=0.000000D+00  E= 4.809896D+00

 Vector  541  Occ=0.000000D+00  E= 4.834562D+00

 Vector  542  Occ=0.000000D+00  E= 4.877036D+00

 Vector  543  Occ=0.000000D+00  E= 4.944161D+00

 Vector  544  Occ=0.000000D+00  E= 4.956489D+00

 Vector  545  Occ=0.000000D+00  E= 5.027590D+00

 Vector  546  Occ=0.000000D+00  E= 5.042382D+00

 Vector  547  Occ=0.000000D+00  E= 5.051557D+00

 Vector  548  Occ=0.000000D+00  E= 5.080055D+00

 Vector  549  Occ=0.000000D+00  E= 5.098217D+00

 Vector  550  Occ=0.000000D+00  E= 5.099360D+00

 Vector  551  Occ=0.000000D+00  E= 5.117639D+00

 Vector  552  Occ=0.000000D+00  E= 5.203005D+00

 Vector  553  Occ=0.000000D+00  E= 5.215017D+00

 Vector  554  Occ=0.000000D+00  E= 5.240001D+00

 Vector  555  Occ=0.000000D+00  E= 5.263522D+00

 Vector  556  Occ=0.000000D+00  E= 5.272636D+00

 Vector  557  Occ=0.000000D+00  E= 5.291548D+00

 Vector  558  Occ=0.000000D+00  E= 5.316429D+00

 Vector  559  Occ=0.000000D+00  E= 5.384416D+00

 Vector  560  Occ=0.000000D+00  E= 5.391893D+00

 Vector  561  Occ=0.000000D+00  E= 5.462457D+00

 Vector  562  Occ=0.000000D+00  E= 5.498358D+00

 Vector  563  Occ=0.000000D+00  E= 5.537098D+00

 Vector  564  Occ=0.000000D+00  E= 5.572781D+00

 Vector  565  Occ=0.000000D+00  E= 5.601719D+00

 Vector  566  Occ=0.000000D+00  E= 5.612345D+00

 Vector  567  Occ=0.000000D+00  E= 5.736183D+00

 Vector  568  Occ=0.000000D+00  E= 5.754311D+00

 Vector  569  Occ=0.000000D+00  E= 5.756708D+00

 Vector  570  Occ=0.000000D+00  E= 5.809316D+00

 Vector  571  Occ=0.000000D+00  E= 5.889224D+00

 Vector  572  Occ=0.000000D+00  E= 6.050056D+00

 Vector  573  Occ=0.000000D+00  E= 6.095513D+00

 Vector  574  Occ=0.000000D+00  E= 6.199650D+00

 Vector  575  Occ=0.000000D+00  E= 6.223153D+00

 Vector  576  Occ=0.000000D+00  E= 6.229758D+00

 Vector  577  Occ=0.000000D+00  E= 6.333926D+00

 Vector  578  Occ=0.000000D+00  E= 6.357417D+00

 Vector  579  Occ=0.000000D+00  E= 6.366053D+00

 Vector  580  Occ=0.000000D+00  E= 6.494716D+00

 Vector  581  Occ=0.000000D+00  E= 6.519827D+00

 Vector  582  Occ=0.000000D+00  E= 6.575000D+00

 Vector  583  Occ=0.000000D+00  E= 6.636589D+00

 Vector  584  Occ=0.000000D+00  E= 6.648542D+00

 Vector  585  Occ=0.000000D+00  E= 6.701585D+00

 Vector  586  Occ=0.000000D+00  E= 6.715784D+00

 Vector  587  Occ=0.000000D+00  E= 6.781064D+00

 Vector  588  Occ=0.000000D+00  E= 6.947239D+00

 Vector  589  Occ=0.000000D+00  E= 6.977273D+00

 Vector  590  Occ=0.000000D+00  E= 7.024395D+00

 Vector  591  Occ=0.000000D+00  E= 7.168356D+00

 Vector  592  Occ=0.000000D+00  E= 7.281672D+00

 Vector  593  Occ=0.000000D+00  E= 2.177879D+01

 Vector  594  Occ=0.000000D+00  E= 2.199927D+01

 Vector  595  Occ=0.000000D+00  E= 2.206242D+01

 Vector  596  Occ=0.000000D+00  E= 2.222671D+01

 Vector  597  Occ=0.000000D+00  E= 2.233715D+01

 Vector  598  Occ=0.000000D+00  E= 2.237305D+01

 Vector  599  Occ=0.000000D+00  E= 2.239702D+01

 Vector  600  Occ=0.000000D+00  E= 2.245501D+01

 Vector  601  Occ=0.000000D+00  E= 2.252290D+01

 Vector  602  Occ=0.000000D+00  E= 2.260257D+01

 Vector  603  Occ=0.000000D+00  E= 2.271364D+01

 Vector  604  Occ=0.000000D+00  E= 2.277436D+01

 Vector  605  Occ=0.000000D+00  E= 2.287028D+01

 Vector  606  Occ=0.000000D+00  E= 2.326194D+01

 Vector  607  Occ=0.000000D+00  E= 4.335907D+01

 Vector  608  Occ=0.000000D+00  E= 4.345001D+01

 Vector  609  Occ=0.000000D+00  E= 4.376491D+01

     Multipole analysis of the density
     ---------------------------------

     L   x y z        total         alpha         beta         nuclear
     -   - - -        -----         -----         ----         -------
     0   0 0 0     -0.000000    -61.000000    -61.000000    122.000000

     1   1 0 0     -0.559748   -301.777401   -301.777401    602.995054
     1   0 1 0     -1.012144    -19.381141    -19.381141     37.750138
     1   0 0 1     -0.541694     50.886440     50.886440   -102.314574

     2   2 0 0    -74.031137  -3657.632513  -3657.632513   7241.233888
     2   1 1 0     -3.690152   -587.325668   -587.325668   1170.961184
     2   1 0 1     -5.656575    135.071508    135.071508   -275.799592
     2   0 2 0    -68.665123   -459.028827   -459.028827    849.392531
     2   0 1 1     -2.885796    -16.887953    -16.887953     30.890110

 Total times  cpu:     6777.0s     wall:     7023.0s
