============================== echo of input deck ==============================
echo
start naproxen_355.9_050.inp
title "naproxen roa calculations at 355.9 nm"
charge 0

geometry units angstrom nocenter noautoz noautosym nucleus point;symmetry c1
 O -2.050011 -0.722066 -0.456174
 C -0.673375 -0.645638 -0.541017
 C -0.122289  0.622689 -0.437001
 C  1.282230  0.813831 -0.510608
 C  1.887443  2.098781 -0.404781
 C  3.260561  2.244583 -0.480480
 C  4.115668  1.123961 -0.672256
 C  3.549761 -0.135600 -0.772256
 C  2.142725 -0.326974 -0.697228
 C  0.168202 -1.779040 -0.724185
 C  5.636277  1.350735 -0.764005
 C  6.329439  0.808470  0.491239
 O  6.541221 -0.550983  0.437018
 O  6.660298  1.475788  1.451780
 C  6.257871  0.813804 -2.075246
 H  5.809901  2.432345 -0.713024
 H  5.784897  1.303425 -2.935510
 H  6.120966 -0.267927 -2.175080
 H  7.335281  1.023209 -2.108970
 H  6.954217 -0.792388  1.293632
 H  1.239795  2.963773 -0.260780
 H  3.718542  3.230024 -0.394418
 H  4.186854 -1.009953 -0.901904
 C  1.541437 -1.611703 -0.799007
 H -0.267558 -2.771198 -0.804827
 H  2.190343 -2.476609 -0.939456
 H -0.792543  1.469842 -0.296096
 C -2.679711 -2.008383 -0.553210
 H -2.362420 -2.681049  0.258045
 H -2.485660 -2.486284 -1.525471
 H -3.751567 -1.810860 -0.457613
end

basis spherical
* library def2-TZVP
end

 set prop:newaoresp 1
 set aor:roadata T
 set cphf:maxsub 100
 set cphf:acc 1.0d-10
 set cphf:maxiter 100

property
    response 1   0.128023
    bdtensor
    convergence 1e-7
    damping 0.0037
    giao
end

dft
 direct
 mult 1
 xc becke88 lyp
 iterations 250
 tolerances tight
 grid xfine
 convergence nolevelshifting
 convergence energy 1e-6
 convergence gradient 1e-6

end

task dft gradient
task dft property
================================================================================

 Output coordinates in angstroms (scale by  1.889725989 to convert to a.u.)

  No.       Tag          Charge          X              Y              Z
 ---- ---------------- ---------- -------------- -------------- --------------
    1 O                    8.0000    -2.05001100    -0.72206600    -0.45617400
    2 C                    6.0000    -0.67337500    -0.64563800    -0.54101700
    3 C                    6.0000    -0.12228900     0.62268900    -0.43700100
    4 C                    6.0000     1.28223000     0.81383100    -0.51060800
    5 C                    6.0000     1.88744300     2.09878100    -0.40478100
    6 C                    6.0000     3.26056100     2.24458300    -0.48048000
    7 C                    6.0000     4.11566800     1.12396100    -0.67225600
    8 C                    6.0000     3.54976100    -0.13560000    -0.77225600
    9 C                    6.0000     2.14272500    -0.32697400    -0.69722800
   10 C                    6.0000     0.16820200    -1.77904000    -0.72418500
   11 C                    6.0000     5.63627700     1.35073500    -0.76400500
   12 C                    6.0000     6.32943900     0.80847000     0.49123900
   13 O                    8.0000     6.54122100    -0.55098300     0.43701800
   14 O                    8.0000     6.66029800     1.47578800     1.45178000
   15 C                    6.0000     6.25787100     0.81380400    -2.07524600
   16 H                    1.0000     5.80990100     2.43234500    -0.71302400
   17 H                    1.0000     5.78489700     1.30342500    -2.93551000
   18 H                    1.0000     6.12096600    -0.26792700    -2.17508000
   19 H                    1.0000     7.33528100     1.02320900    -2.10897000
   20 H                    1.0000     6.95421700    -0.79238800     1.29363200
   21 H                    1.0000     1.23979500     2.96377300    -0.26078000
   22 H                    1.0000     3.71854200     3.23002400    -0.39441800
   23 H                    1.0000     4.18685400    -1.00995300    -0.90190400
   24 C                    6.0000     1.54143700    -1.61170300    -0.79900700
   25 H                    1.0000    -0.26755800    -2.77119800    -0.80482700
   26 H                    1.0000     2.19034300    -2.47660900    -0.93945600
   27 H                    1.0000    -0.79254300     1.46984200    -0.29609600
   28 C                    6.0000    -2.67971100    -2.00838300    -0.55321000
   29 H                    1.0000    -2.36242000    -2.68104900     0.25804500
   30 H                    1.0000    -2.48566000    -2.48628400    -1.52547100
   31 H                    1.0000    -3.75156700    -1.81086000    -0.45761300

         Total DFT energy =     -767.628964350771
         Total DFT energy =     -767.628964350099

                       DFT Final Molecular Orbital Analysis
                       ------------------------------------

 Vector    1  Occ=2.000000D+00  E=-1.882036D+01

 Vector  530  Occ=0.000000D+00  E= 4.533496D+00

 Vector  531  Occ=0.000000D+00  E= 4.563320D+00

 Vector  532  Occ=0.000000D+00  E= 4.585357D+00

 Vector  533  Occ=0.000000D+00  E= 4.661313D+00

 Vector  534  Occ=0.000000D+00  E= 4.668165D+00

 Vector  535  Occ=0.000000D+00  E= 4.684155D+00

 Vector  536  Occ=0.000000D+00  E= 4.693543D+00

 Vector  537  Occ=0.000000D+00  E= 4.721143D+00

 Vector  538  Occ=0.000000D+00  E= 4.737341D+00

 Vector  539  Occ=0.000000D+00  E= 4.767479D+00

 Vector  540  Occ=0.000000D+00  E= 4.810963D+00

 Vector  541  Occ=0.000000D+00  E= 4.834521D+00

 Vector  542  Occ=0.000000D+00  E= 4.877055D+00

 Vector  543  Occ=0.000000D+00  E= 4.944107D+00

 Vector  544  Occ=0.000000D+00  E= 4.955937D+00

 Vector  545  Occ=0.000000D+00  E= 5.027388D+00

 Vector  546  Occ=0.000000D+00  E= 5.043759D+00

 Vector  547  Occ=0.000000D+00  E= 5.052459D+00

 Vector  548  Occ=0.000000D+00  E= 5.079374D+00

 Vector  549  Occ=0.000000D+00  E= 5.098612D+00

 Vector  550  Occ=0.000000D+00  E= 5.099744D+00

 Vector  551  Occ=0.000000D+00  E= 5.115287D+00

 Vector  552  Occ=0.000000D+00  E= 5.201915D+00

 Vector  553  Occ=0.000000D+00  E= 5.215107D+00

 Vector  554  Occ=0.000000D+00  E= 5.241448D+00

 Vector  555  Occ=0.000000D+00  E= 5.263518D+00

 Vector  556  Occ=0.000000D+00  E= 5.272876D+00

 Vector  557  Occ=0.000000D+00  E= 5.291776D+00

 Vector  558  Occ=0.000000D+00  E= 5.316616D+00

 Vector  559  Occ=0.000000D+00  E= 5.383644D+00

 Vector  560  Occ=0.000000D+00  E= 5.394727D+00

 Vector  561  Occ=0.000000D+00  E= 5.460314D+00

 Vector  562  Occ=0.000000D+00  E= 5.502711D+00

 Vector  563  Occ=0.000000D+00  E= 5.531109D+00

 Vector  564  Occ=0.000000D+00  E= 5.571969D+00

 Vector  565  Occ=0.000000D+00  E= 5.600812D+00

 Vector  566  Occ=0.000000D+00  E= 5.610927D+00

 Vector  567  Occ=0.000000D+00  E= 5.734960D+00

 Vector  568  Occ=0.000000D+00  E= 5.749362D+00

 Vector  569  Occ=0.000000D+00  E= 5.753065D+00

 Vector  570  Occ=0.000000D+00  E= 5.811641D+00

 Vector  571  Occ=0.000000D+00  E= 5.883977D+00

 Vector  572  Occ=0.000000D+00  E= 6.048883D+00

 Vector  573  Occ=0.000000D+00  E= 6.094549D+00

 Vector  574  Occ=0.000000D+00  E= 6.199331D+00

 Vector  575  Occ=0.000000D+00  E= 6.222425D+00

 Vector  576  Occ=0.000000D+00  E= 6.228275D+00

 Vector  577  Occ=0.000000D+00  E= 6.333794D+00

 Vector  578  Occ=0.000000D+00  E= 6.356378D+00

 Vector  579  Occ=0.000000D+00  E= 6.358636D+00

 Vector  580  Occ=0.000000D+00  E= 6.492203D+00

 Vector  581  Occ=0.000000D+00  E= 6.519243D+00

 Vector  582  Occ=0.000000D+00  E= 6.574153D+00

 Vector  583  Occ=0.000000D+00  E= 6.635190D+00

 Vector  584  Occ=0.000000D+00  E= 6.647426D+00

 Vector  585  Occ=0.000000D+00  E= 6.701021D+00

 Vector  586  Occ=0.000000D+00  E= 6.713813D+00

 Vector  587  Occ=0.000000D+00  E= 6.780659D+00

 Vector  588  Occ=0.000000D+00  E= 6.945907D+00

 Vector  589  Occ=0.000000D+00  E= 6.976293D+00

 Vector  590  Occ=0.000000D+00  E= 7.024900D+00

 Vector  591  Occ=0.000000D+00  E= 7.167230D+00

 Vector  592  Occ=0.000000D+00  E= 7.280475D+00

 Vector  593  Occ=0.000000D+00  E= 2.177618D+01

 Vector  594  Occ=0.000000D+00  E= 2.200429D+01

 Vector  595  Occ=0.000000D+00  E= 2.206316D+01

 Vector  596  Occ=0.000000D+00  E= 2.222803D+01

 Vector  597  Occ=0.000000D+00  E= 2.233676D+01

 Vector  598  Occ=0.000000D+00  E= 2.237016D+01

 Vector  599  Occ=0.000000D+00  E= 2.239554D+01

 Vector  600  Occ=0.000000D+00  E= 2.245192D+01

 Vector  601  Occ=0.000000D+00  E= 2.251944D+01

 Vector  602  Occ=0.000000D+00  E= 2.260401D+01

 Vector  603  Occ=0.000000D+00  E= 2.271556D+01

 Vector  604  Occ=0.000000D+00  E= 2.277579D+01

 Vector  605  Occ=0.000000D+00  E= 2.286779D+01

 Vector  606  Occ=0.000000D+00  E= 2.326307D+01

 Vector  607  Occ=0.000000D+00  E= 4.335778D+01

 Vector  608  Occ=0.000000D+00  E= 4.344984D+01

 Vector  609  Occ=0.000000D+00  E= 4.376607D+01

     Multipole analysis of the density
     ---------------------------------

     L   x y z        total         alpha         beta         nuclear
     -   - - -        -----         -----         ----         -------
     0   0 0 0     -0.000000    -61.000000    -61.000000    122.000000

     1   1 0 0     -0.539929   -301.747916   -301.747916    602.955903
     1   0 1 0     -1.003592    -19.366324    -19.366324     37.729056
     1   0 0 1     -0.543943     50.883597     50.883597   -102.311137

     2   2 0 0    -74.059229  -3658.002922  -3658.002922   7241.946615
     2   1 1 0     -3.693907   -587.267797   -587.267797   1170.841686
     2   1 0 1     -5.696793    135.042389    135.042389   -275.781572
     2   0 2 0    -68.732868   -458.707260   -458.707260    848.681653
     2   0 1 1     -2.888833    -16.887421    -16.887421     30.886010

 Total times  cpu:     6641.3s     wall:     6892.3s
