 Gaussian 09, Revision D.01,
 Gaussian 09:  EM64L-G09RevD.01 24-Apr-2013

 ----------------------------------
 # HF/aug-cc-pVDZ gfinput pop(full)
 ----------------------------------

 ------
 ch3nh2
 ------
 Symbolic Z-matrix:
 Charge =  0 Multiplicity = 1

                         Standard orientation:
 ---------------------------------------------------------------------
 Center     Atomic      Atomic             Coordinates (Angstroms)
 Number     Number       Type             X           Y           Z
 ---------------------------------------------------------------------
      1          6           0        0.053054    0.712391    0.000000
      2          7           0        0.053054   -0.757609    0.000000
      3          1           0       -0.977561    1.067260    0.000000
      4          1           0        0.568362    1.067261    0.892539
      5          1           0        0.568362    1.067261   -0.892539
      6          1           0       -0.424433   -1.086433   -0.827032
      7          1           0       -0.424433   -1.086433    0.827032
 ---------------------------------------------------------------------

 SCF Done:  E(RHF) =  -95.2292518305     A.U. after   11 cycles

 The electronic state is 1-A'.
 Alpha  occ. eigenvalues --  -15.54466 -11.24832  -1.17026  -0.89362  -0.66844
 Alpha  occ. eigenvalues --   -0.59778  -0.55549  -0.52287  -0.38559
 Alpha virt. eigenvalues --    0.03589   0.05186   0.05316   0.06142   0.08270
 Alpha virt. eigenvalues --    0.11561   0.15235   0.15246   0.17129   0.17556
 Alpha virt. eigenvalues --    0.19733   0.20987   0.27130   0.29327   0.29710

 Mulliken charges:
               1
     1  C    0.738131
     2  N   -0.383501
     3  H   -0.104440
     4  H   -0.118920
     5  H   -0.118920
     6  H   -0.006175
     7  H   -0.006175
 Sum of Mulliken charges =   0.00000

 Dipole moment (field-independent basis, Debye):
    X=             -1.3304    Y=              0.4779    Z=              0.0000  Tot=              1.4136
 Quadrupole moment (field-independent basis, Debye-Ang):
   XX=            -15.1117   YY=            -14.7868   ZZ=            -12.4324
   XY=              2.2033   XZ=              0.0000   YZ=              0.0000

 Normal termination of Gaussian 09 at Fri Jan 20 22:07:05 2017.
