 Gaussian 16, Revision A.03,
 Gaussian 16:  ES64L-G16RevA.03 25-Dec-2016

 -------------------------------------------------------------
 #P blyp/def2TZVP OPT=VeryTight SCF=Tight Int=UltraFine NoSymm
 -------------------------------------------------------------

 ---
 opt
 ---
 Symbolic Z-matrix:
 Charge =  0 Multiplicity = 1

 SCF Done:  E(RB-LYP) =  -193.108304066     A.U. after   13 cycles
 SCF Done:  E(RB-LYP) =  -193.109156399     A.U. after   11 cycles
 SCF Done:  E(RB-LYP) =  -193.109310083     A.U. after    9 cycles
 SCF Done:  E(RB-LYP) =  -193.109316668     A.U. after    8 cycles
 SCF Done:  E(RB-LYP) =  -193.109317358     A.U. after    7 cycles
 SCF Done:  E(RB-LYP) =  -193.109317443     A.U. after    6 cycles
 SCF Done:  E(RB-LYP) =  -193.109317466     A.U. after    6 cycles
 SCF Done:  E(RB-LYP) =  -193.109317472     A.U. after    6 cycles
 SCF Done:  E(RB-LYP) =  -193.109317474     A.U. after    5 cycles
 SCF Done:  E(RB-LYP) =  -193.109317474     A.U. after    4 cycles
 SCF Done:  E(RB-LYP) =  -193.109317474     A.U. after    4 cycles
 SCF Done:  E(RB-LYP) =  -193.109317474     A.U. after    2 cycles
 Optimization completed.
    -- Stationary point found.

                          Input orientation:
 ---------------------------------------------------------------------
 Center     Atomic      Atomic             Coordinates (Angstroms)
 Number     Number       Type             X           Y           Z
 ---------------------------------------------------------------------
      1          8           0       -0.879112   -0.180294    0.205257
      2          6           0        0.574199   -0.157646    0.122588
      3          6           0       -0.185517    1.088353    0.340116
      4          6           0        1.185420   -0.520407   -1.211416
      5          1           0        1.058604   -0.603865    0.998120
      6          1           0       -0.228052    1.538075    1.335550
      7          1           0       -0.325346    1.782434   -0.493154
      8          1           0        2.241636   -0.216103   -1.245734
      9          1           0        1.142471   -1.606131   -1.374270
     10          1           0        0.651796   -0.027264   -2.033329
 ---------------------------------------------------------------------

 Alpha  occ. eigenvalues --  -18.77971  -9.96323  -9.95559  -9.90797  -0.96245
 Alpha  occ. eigenvalues --   -0.66978  -0.58980  -0.52994  -0.44772  -0.41359
 Alpha  occ. eigenvalues --   -0.37684  -0.35601  -0.32909  -0.32119  -0.26342
 Alpha  occ. eigenvalues --   -0.21966
 Alpha virt. eigenvalues --    0.02570   0.04282   0.05007   0.05091   0.06466
 Alpha virt. eigenvalues --    0.08605   0.09141   0.10254   0.13895   0.17035
 Alpha virt. eigenvalues --    0.19742   0.20206   0.23635   0.24754   0.26869

 Mulliken charges:
               1
     1  O   -0.337961
     2  C    0.099513
     3  C   -0.029580
     4  C   -0.301262
     5  H    0.088240
     6  H    0.087609
     7  H    0.084643
     8  H    0.094343
     9  H    0.108279
    10  H    0.106174
 Sum of Mulliken charges =   0.00000

 Dipole moment (field-independent basis, Debye):
    X=              1.7548    Y=              0.8279    Z=             -0.1453  Tot=              1.9457
 Quadrupole moment (field-independent basis, Debye-Ang):
   XX=            -26.9358   YY=            -23.9917   ZZ=            -24.4761
   XY=             -1.4948   XZ=              0.2050   YZ=              0.3365

 Normal termination of Gaussian 16 at Sat Mar 16 14:07:19 2019.
