 Gaussian 16, Revision A.03,
 Gaussian 16:  ES64L-G16RevA.03 25-Dec-2016

 -------------------------------------------------------------
 #P BLYP/def2TZVP OPT=VeryTight Int=UltraFine SCF=Tight NoSymm
 -------------------------------------------------------------

 ----------
 opt + freq
 ----------
 Symbolic Z-matrix:
 Charge =  0 Multiplicity = 1

 SCF Done:  E(RB-LYP) =  -767.609635897     A.U. after   21 cycles
 SCF Done:  E(RB-LYP) =  -767.626478434     A.U. after   16 cycles
 SCF Done:  E(RB-LYP) =  -767.628664638     A.U. after   16 cycles
 SCF Done:  E(RB-LYP) =  -767.628751791     A.U. after   15 cycles
 SCF Done:  E(RB-LYP) =  -767.628859176     A.U. after   15 cycles
 SCF Done:  E(RB-LYP) =  -767.629049214     A.U. after   10 cycles
 SCF Done:  E(RB-LYP) =  -767.629128378     A.U. after   19 cycles
 SCF Done:  E(RB-LYP) =  -767.629156533     A.U. after   15 cycles
 SCF Done:  E(RB-LYP) =  -767.629162923     A.U. after    9 cycles
 SCF Done:  E(RB-LYP) =  -767.629164007     A.U. after    9 cycles
 SCF Done:  E(RB-LYP) =  -767.629164382     A.U. after    5 cycles
 SCF Done:  E(RB-LYP) =  -767.629164381     A.U. after    6 cycles
 SCF Done:  E(RB-LYP) =  -767.629164382     A.U. after    6 cycles
 SCF Done:  E(RB-LYP) =  -767.629164382     A.U. after    4 cycles
 SCF Done:  E(RB-LYP) =  -767.629164382     A.U. after    2 cycles
 SCF Done:  E(RB-LYP) =  -767.629164382     A.U. after    4 cycles
 SCF Done:  E(RB-LYP) =  -767.629164382     A.U. after    2 cycles
 SCF Done:  E(RB-LYP) =  -767.629164382     A.U. after    3 cycles
 SCF Done:  E(RB-LYP) =  -767.629164382     A.U. after    3 cycles
 SCF Done:  E(RB-LYP) =  -767.629164382     A.U. after    3 cycles
 Optimization completed.
    -- Stationary point found.

                          Input orientation:
 ---------------------------------------------------------------------
 Center     Atomic      Atomic             Coordinates (Angstroms)
 Number     Number       Type             X           Y           Z
 ---------------------------------------------------------------------
      1          8           0       -2.048605   -0.721840   -0.456243
      2          6           0       -0.674837   -0.646757   -0.541043
      3          6           0       -0.121448    0.623316   -0.436985
      4          6           0        1.280742    0.814043   -0.510479
      5          6           0        1.888654    2.099381   -0.404779
      6          6           0        3.258877    2.245662   -0.480264
      7          6           0        4.118443    1.123987   -0.672417
      8          6           0        3.549889   -0.136576   -0.772397
      9          6           0        2.142032   -0.328023   -0.697303
     10          6           0        0.169398   -1.778610   -0.724221
     11          6           0        5.634881    1.350781   -0.764056
     12          6           0        6.329694    0.808182    0.491345
     13          8           0        6.541224   -0.550740    0.437188
     14          8           0        6.660202    1.475687    1.451629
     15          6           0        6.258276    0.813493   -2.075214
     16          1           0        5.805717    2.432788   -0.713091
     17          1           0        5.783750    1.303902   -2.934210
     18          1           0        6.120037   -0.267967   -2.175924
     19          1           0        7.335476    1.023524   -2.110083
     20          1           0        6.954224   -0.794145    1.293176
     21          1           0        1.253414    2.973426   -0.260681
     22          1           0        3.699430    3.238748   -0.391837
     23          1           0        4.181604   -1.014996   -0.901890
     24          6           0        1.540694   -1.611935   -0.798989
     25          1           0       -0.253241   -2.776230   -0.806370
     26          1           0        2.180165   -2.483690   -0.939538
     27          1           0       -0.783331    1.476876   -0.295937
     28          6           0       -2.680932   -2.008541   -0.553144
     29          1           0       -2.359134   -2.679528    0.257522
     30          1           0       -2.482312   -2.484862   -1.525087
     31          1           0       -3.753242   -1.813967   -0.457827
 ---------------------------------------------------------------------

 Alpha  occ. eigenvalues --  -18.82026 -18.80721 -18.76347 -10.03459  -9.97096
 Alpha  occ. eigenvalues --   -9.96591  -9.93545  -9.92222  -9.92137  -9.91838
 Alpha  occ. eigenvalues --   -9.91668  -9.91598  -9.91106  -9.91060  -9.90968
 Alpha  occ. eigenvalues --   -9.90778  -9.90591  -1.00254  -0.96600  -0.92061
 Alpha  occ. eigenvalues --   -0.78800  -0.75057  -0.71374  -0.69475  -0.66223
 Alpha  occ. eigenvalues --   -0.65574  -0.61876  -0.59618  -0.56821  -0.54639
 Alpha  occ. eigenvalues --   -0.53517  -0.51855  -0.47644  -0.45957  -0.45342
 Alpha  occ. eigenvalues --   -0.42568  -0.41991  -0.41588  -0.41407  -0.40248
 Alpha  occ. eigenvalues --   -0.39568  -0.38944  -0.37845  -0.36947  -0.36308
 Alpha  occ. eigenvalues --   -0.35768  -0.34919  -0.34515  -0.33504  -0.33324
 Alpha  occ. eigenvalues --   -0.31572  -0.30963  -0.30025  -0.29558  -0.28192
 Alpha  occ. eigenvalues --   -0.27684  -0.26743  -0.24761  -0.22802  -0.20964
 Alpha  occ. eigenvalues --   -0.17974
 Alpha virt. eigenvalues --   -0.07070  -0.04562  -0.02313  -0.01334   0.00424
 Alpha virt. eigenvalues --    0.01647   0.03222   0.03694   0.04113   0.05143
 Alpha virt. eigenvalues --    0.05547   0.06085   0.06757   0.07491   0.08338

 Mulliken charges:
               1
     1  O   -0.252352
     2  C    0.311686
     3  C   -0.253114
     4  C    0.168015
     5  C   -0.171669
     6  C   -0.147716
     7  C    0.152785
     8  C   -0.281148
     9  C    0.176991
    10  C   -0.203028
    11  C    0.046303
    12  C    0.219439
    13  O   -0.358454
    14  O   -0.267646
    15  C   -0.336326
    16  H    0.059083
    17  H    0.108598
    18  H    0.112923
    19  H    0.108724
    20  H    0.300028
    21  H    0.083547
    22  H    0.087656
    23  H    0.091742
    24  C   -0.196182
    25  H    0.098725
    26  H    0.087432
    27  H    0.077620
    28  C   -0.180382
    29  H    0.114081
    30  H    0.113678
    31  H    0.128961
 Sum of Mulliken charges =  -0.00000

 Dipole moment (field-independent basis, Debye):
    X=             -1.4080    Y=             -2.5697    Z=             -1.3795  Tot=              3.2386
 Quadrupole moment (field-independent basis, Debye-Ang):
   XX=            -99.7299   YY=            -92.3102   ZZ=           -104.7290
   XY=             -4.9844   XZ=             -7.6214   YZ=             -3.8650

 Normal termination of Gaussian 16 at Sat Mar 16 17:11:24 2019.
