 Gaussian 16, Revision A.03,
 Gaussian 16:  ES64L-G16RevA.03 25-Dec-2016

 --------------------------------------------------------------------
 #P BLYP/def2TZVP FREQ=SaveNormalModes Int=UltraFine SCF=Tight NoSymm
 --------------------------------------------------------------------

 ----------
 opt + freq
 ----------
 Symbolic Z-matrix:
 Charge =  0 Multiplicity = 1

                          Input orientation:
 ---------------------------------------------------------------------
 Center     Atomic      Atomic             Coordinates (Angstroms)
 Number     Number       Type             X           Y           Z
 ---------------------------------------------------------------------
      1          8           0       -2.048605   -0.721840   -0.456245
      2          6           0       -0.674837   -0.646757   -0.541043
      3          6           0       -0.121449    0.623317   -0.436988
      4          6           0        1.280742    0.814044   -0.510481
      5          6           0        1.888654    2.099382   -0.404783
      6          6           0        3.258877    2.245662   -0.480267
      7          6           0        4.118443    1.123988   -0.672416
      8          6           0        3.549889   -0.136576   -0.772394
      9          6           0        2.142032   -0.328023   -0.697301
     10          6           0        0.169398   -1.778610   -0.724219
     11          6           0        5.634881    1.350781   -0.764054
     12          6           0        6.329694    0.808178    0.491346
     13          8           0        6.541226   -0.550744    0.437182
     14          8           0        6.660201    1.475679    1.451632
     15          6           0        6.258275    0.813497   -2.075214
     16          1           0        5.805717    2.432788   -0.713085
     17          1           0        5.783750    1.303910   -2.934209
     18          1           0        6.120036   -0.267962   -2.175928
     19          1           0        7.335476    1.023528   -2.110083
     20          1           0        6.954226   -0.794152    1.293169
     21          1           0        1.253413    2.973426   -0.260687
     22          1           0        3.699429    3.238749   -0.391841
     23          1           0        4.181605   -1.014996   -0.901885
     24          6           0        1.540695   -1.611935   -0.798985
     25          1           0       -0.253240   -2.776231   -0.806365
     26          1           0        2.180166   -2.483691   -0.939531
     27          1           0       -0.783332    1.476876   -0.295943
     28          6           0       -2.680932   -2.008541   -0.553144
     29          1           0       -2.359134   -2.679527    0.257524
     30          1           0       -2.482311   -2.484864   -1.525086
     31          1           0       -3.753242   -1.813967   -0.457828
 ---------------------------------------------------------------------

 SCF Done:  E(RB-LYP) =  -767.629164382     A.U. after   18 cycles

 Alpha  occ. eigenvalues --  -18.82026 -18.80721 -18.76347 -10.03459  -9.97096
 Alpha  occ. eigenvalues --   -9.96591  -9.93545  -9.92222  -9.92137  -9.91838
 Alpha  occ. eigenvalues --   -9.91668  -9.91598  -9.91106  -9.91060  -9.90968
 Alpha  occ. eigenvalues --   -9.90778  -9.90591  -1.00254  -0.96600  -0.92061
 Alpha  occ. eigenvalues --   -0.78800  -0.75057  -0.71374  -0.69475  -0.66223
 Alpha  occ. eigenvalues --   -0.65574  -0.61876  -0.59618  -0.56821  -0.54639
 Alpha  occ. eigenvalues --   -0.53517  -0.51855  -0.47644  -0.45957  -0.45342
 Alpha  occ. eigenvalues --   -0.42568  -0.41991  -0.41588  -0.41407  -0.40248
 Alpha  occ. eigenvalues --   -0.39568  -0.38944  -0.37845  -0.36947  -0.36308
 Alpha  occ. eigenvalues --   -0.35768  -0.34919  -0.34515  -0.33504  -0.33324
 Alpha  occ. eigenvalues --   -0.31572  -0.30963  -0.30025  -0.29558  -0.28192
 Alpha  occ. eigenvalues --   -0.27684  -0.26743  -0.24761  -0.22802  -0.20964
 Alpha  occ. eigenvalues --   -0.17974
 Alpha virt. eigenvalues --   -0.07070  -0.04562  -0.02313  -0.01334   0.00424
 Alpha virt. eigenvalues --    0.01647   0.03222   0.03694   0.04113   0.05143
 Alpha virt. eigenvalues --    0.05547   0.06085   0.06757   0.07491   0.08338

 Mulliken charges:
               1
     1  O   -0.252353
     2  C    0.311687
     3  C   -0.253114
     4  C    0.168015
     5  C   -0.171668
     6  C   -0.147715
     7  C    0.152784
     8  C   -0.281149
     9  C    0.176991
    10  C   -0.203028
    11  C    0.046303
    12  C    0.219439
    13  O   -0.358453
    14  O   -0.267646
    15  C   -0.336326
    16  H    0.059083
    17  H    0.108598
    18  H    0.112923
    19  H    0.108724
    20  H    0.300028
    21  H    0.083547
    22  H    0.087655
    23  H    0.091742
    24  C   -0.196182
    25  H    0.098725
    26  H    0.087432
    27  H    0.077621
    28  C   -0.180381
    29  H    0.114081
    30  H    0.113678
    31  H    0.128961
 Sum of Mulliken charges =  -0.00000

 Dipole moment (field-independent basis, Debye):
    X=             -1.4080    Y=             -2.5697    Z=             -1.3795  Tot=              3.2386
 Quadrupole moment (field-independent basis, Debye-Ang):
   XX=            -99.7299   YY=            -92.3102   ZZ=           -104.7290
   XY=             -4.9844   XZ=             -7.6214   YZ=             -3.8650

  Exact polarizability: 275.240  42.943 191.239   1.290   7.071 117.221
 Approx polarizability: 489.798  70.726 422.403  -1.585  27.461 211.383

                      1                      2                      3
                      A                      A                      A
 Frequencies --     18.2370                38.3898                48.8911
 Red. masses --      4.5352                 7.1499                 6.1358
 Frc consts  --      0.0009                 0.0062                 0.0086
 IR Inten    --      0.1837                 0.5943                 1.0833

                      4                      5                      6
                      A                      A                      A
 Frequencies --     75.5387               111.0542               134.4256
 Red. masses --      3.9240                 4.8404                 3.8313
 Frc consts  --      0.0132                 0.0352                 0.0408
 IR Inten    --      2.0015                 0.6638                 0.6323

                      7                      8                      9
                      A                      A                      A
 Frequencies --    176.9797               187.7134               218.2068
 Red. masses --      3.0828                 3.6615                 1.7127
 Frc consts  --      0.0569                 0.0760                 0.0480
 IR Inten    --      0.7496                 0.5693                 0.8351

                     10                     11                     12
                      A                      A                      A
 Frequencies --    223.2027               237.1405               259.1722
 Red. masses --      1.2468                 1.7268                 2.9087
 Frc consts  --      0.0366                 0.0572                 0.1151
 IR Inten    --      0.2492                 0.2822                 0.8416

                     13                     14                     15
                      A                      A                      A
 Frequencies --    290.2638               337.6675               380.6110
 Red. masses --      4.2635                 5.0757                 5.3871
 Frc consts  --      0.2116                 0.3410                 0.4598
 IR Inten    --      0.4493                 1.1182                 0.5360

                     16                     17                     18
                      A                      A                      A
 Frequencies --    402.3495               407.4621               448.7873
 Red. masses --      3.3352                 4.3236                 5.0461
 Frc consts  --      0.3181                 0.4229                 0.5988
 IR Inten    --      0.0957                 0.9268                 2.9574

                     19                     20                     21
                      A                      A                      A
 Frequencies --    467.1020               517.4415               538.1755
 Red. masses --      2.5650                 6.3061                 3.6854
 Frc consts  --      0.3297                 0.9948                 0.6289
 IR Inten    --     13.6274                 2.4151                 5.6672

                     22                     23                     24
                      A                      A                      A
 Frequencies --    560.6669               579.4680               595.4022
 Red. masses --      3.0330                 1.9416                 3.3578
 Frc consts  --      0.5617                 0.3841                 0.7013
 IR Inten    --     30.7126                55.5893                24.3125

                     25                     26                     27
                      A                      A                      A
 Frequencies --    618.6296               660.3893               668.2193
 Red. masses --      2.2553                 3.3523                 4.8502
 Frc consts  --      0.5085                 0.8614                 1.2760
 IR Inten    --     17.7361                21.0260                 3.6506

                     28                     29                     30
                      A                      A                      A
 Frequencies --    725.8621               751.0342               765.0232
 Red. masses --      5.4888                 2.5651                 3.8009
 Frc consts  --      1.7039                 0.8525                 1.3107
 IR Inten    --     23.4925                 2.8763                 9.2505

                     31                     32                     33
                      A                      A                      A
 Frequencies --    779.1305               786.3475               805.5686
 Red. masses --      2.1076                 1.6720                 2.1087
 Frc consts  --      0.7538                 0.6091                 0.8063
 IR Inten    --      2.8028                18.1856                 1.4283

                     34                     35                     36
                      A                      A                      A
 Frequencies --    814.2361               859.0728               880.9002
 Red. masses --      3.3754                 1.6916                 1.4922
 Frc consts  --      1.3185                 0.7355                 0.6822
 IR Inten    --      3.7046                30.2929                 8.8866

                     37                     38                     39
                      A                      A                      A
 Frequencies --    899.6371               906.4292               916.0775
 Red. masses --      3.7030                 1.4291                 1.3184
 Frc consts  --      1.7658                 0.6918                 0.6519
 IR Inten    --      8.2787                 4.4349                 0.3893

                     40                     41                     42
                      A                      A                      A
 Frequencies --    946.3155               967.5650              1011.3782
 Red. masses --      3.7340                 2.2731                 4.2200
 Frc consts  --      1.9701                 1.2538                 2.5432
 IR Inten    --      2.6744                55.5799                76.9902

                     43                     44                     45
                      A                      A                      A
 Frequencies --   1018.0767              1065.7267              1112.3222
 Red. masses --      2.2299                 1.9401                 2.3007
 Frc consts  --      1.3617                 1.2983                 1.6772
 IR Inten    --     69.6051                12.8681                44.2371

                     46                     47                     48
                      A                      A                      A
 Frequencies --   1128.8394              1130.5647              1140.2743
 Red. masses --      1.8447                 1.2634                 2.0641
 Frc consts  --      1.3850                 0.9515                 1.5812
 IR Inten    --    100.0866                 0.5557                91.9911

                     49                     50                     51
                      A                      A                      A
 Frequencies --   1152.5656              1160.3089              1171.9578
 Red. masses --      1.5120                 1.2594                 1.5238
 Frc consts  --      1.1834                 0.9990                 1.2331
 IR Inten    --     29.6626                40.6038                 4.5733

                     52                     53                     54
                      A                      A                      A
 Frequencies --   1221.0979              1251.2615              1258.2035
 Red. masses --      2.3630                 2.0431                 1.8392
 Frc consts  --      2.0759                 1.8847                 1.7155
 IR Inten    --    126.3954               147.4359                11.9255

                     55                     56                     57
                      A                      A                      A
 Frequencies --   1274.6857              1292.3589              1306.8237
 Red. masses --      1.8496                 1.9224                 1.2933
 Frc consts  --      1.7706                 1.8918                 1.3013
 IR Inten    --      1.1830                 7.9809                 9.1199

                     58                     59                     60
                      A                      A                      A
 Frequencies --   1344.2185              1360.1850              1362.9107
 Red. masses --      2.7975                 3.9165                 2.5022
 Frc consts  --      2.9783                 4.2692                 2.7385
 IR Inten    --      3.8946                 3.6287                 5.9335

                     61                     62                     63
                      A                      A                      A
 Frequencies --   1378.9675              1405.2187              1435.2100
 Red. masses --      1.2125                 3.0135                 1.2000
 Frc consts  --      1.3584                 3.5059                 1.4563
 IR Inten    --      1.9208                 1.4370                11.0280

                     64                     65                     66
                      A                      A                      A
 Frequencies --   1455.5099              1459.5969              1465.1261
 Red. masses --      1.0493                 1.0683                 1.1567
 Frc consts  --      1.3097                 1.3409                 1.4630
 IR Inten    --      6.7905                13.3060                47.5806

                     67                     68                     69
                      A                      A                      A
 Frequencies --   1465.4161              1470.9352              1489.8853
 Red. masses --      1.0609                 1.7450                 3.1994
 Frc consts  --      1.3423                 2.2244                 4.1843
 IR Inten    --     14.6412                 0.5693                62.6571

                     70                     71                     72
                      A                      A                      A
 Frequencies --   1539.0565              1582.2517              1602.3449
 Red. masses --      6.4311                 5.3161                 5.9784
 Frc consts  --      8.9752                 7.8414                 9.0437
 IR Inten    --      6.6727                80.2996                64.1838

                     73                     74                     75
                      A                      A                      A
 Frequencies --   1721.7532              2932.9557              2970.8975
 Red. masses --      9.1354                 1.0343                 1.0359
 Frc consts  --     15.9558                 5.2420                 5.3871
 IR Inten    --    326.6037                77.3853                33.4368

                     76                     77                     78
                      A                      A                      A
 Frequencies --   2985.7391              2999.6804              3026.5474
 Red. masses --      1.1060                 1.0842                 1.1015
 Frc consts  --      5.8090                 5.7477                 5.9446
 IR Inten    --     38.5918                 5.8184                29.9834

                     79                     80                     81
                      A                      A                      A
 Frequencies --   3051.8384              3056.6361              3082.9334
 Red. masses --      1.0998                 1.0979                 1.0855
 Frc consts  --      6.0351                 6.0435                 6.0786
 IR Inten    --     16.3782                24.3951                 5.0210

                     82                     83                     84
                      A                      A                      A
 Frequencies --   3087.7347              3095.5489              3099.8662
 Red. masses --      1.0882                 1.0886                 1.0934
 Frc consts  --      6.1126                 6.1458                 6.1906
 IR Inten    --      6.2054                13.7580                14.7875

                     85                     86                     87
                      A                      A                      A
 Frequencies --   3104.7908              3131.1519              3570.3323
 Red. masses --      1.0894                 1.0903                 1.0638
 Frc consts  --      6.1874                 6.2978                 7.9896
 IR Inten    --      9.7094                10.1198                43.0834

 - Thermochemistry -
 -------------------
 Temperature   298.150 Kelvin.  Pressure   1.00000 Atm.
 Atom     1 has atomic number  8 and mass  15.99491

 Molecular mass:   230.09429 amu.
 Principal axes and moments of inertia in atomic units:
                           1         2         3
     Eigenvalues --  1439.880908796.752969331.81937
           X            0.96571  -0.25123  -0.06544
           Y            0.25100   0.96791  -0.01186
           Z            0.06632  -0.00497   0.99779
 This molecule is an asymmetric top.
 Rotational symmetry number  1.
 Warning -- assumption of classical behavior for rotation
           may cause significant error
 Rotational temperatures (Kelvin)      0.06015     0.00985     0.00928
 Rotational constants (GHZ):           1.25340     0.20516     0.19340
 Zero-point vibrational energy     636631.5 (Joules/Mol)
                                  152.15857 (Kcal/Mol)
 Warning -- explicit consideration of  25 degrees of freedom as
           vibrations may cause significant error
 Vibrational temperatures:     26.24    55.23    70.34   108.68   159.78
          (Kelvin)            193.41   254.63   270.08   313.95   321.14
                              341.19   372.89   417.62   485.83   547.61
                              578.89   586.25   645.70   672.06   744.48
                              774.31   806.67   833.73   856.65   890.07
                              950.15   961.42  1044.35  1080.57  1100.70
                             1121.00  1131.38  1159.03  1171.50  1236.01
                             1267.42  1294.38  1304.15  1318.03  1361.54
                             1392.11  1455.15  1464.79  1533.34  1600.38
                             1624.15  1626.63  1640.60  1658.28  1669.43
                             1686.19  1756.89  1800.29  1810.27  1833.99
                             1859.42  1880.23  1934.03  1957.00  1960.92
                             1984.03  2021.80  2064.95  2094.15  2100.03
                             2107.99  2108.41  2116.35  2143.61  2214.36
                             2276.51  2305.42  2477.22  4219.87  4274.46
                             4295.81  4315.87  4354.53  4390.91  4397.82
                             4435.65  4442.56  4453.80  4460.02  4467.10
                             4505.03  5136.91

 Zero-point correction=                           0.242480 (Hartree/Particle)
 Thermal correction to Energy=                    0.258274
 Thermal correction to Enthalpy=                  0.259218
 Thermal correction to Gibbs Free Energy=         0.197912
 Sum of electronic and zero-point Energies=           -767.386684
 Sum of electronic and thermal Energies=              -767.370891
 Sum of electronic and thermal Enthalpies=            -767.369947
 Sum of electronic and thermal Free Energies=         -767.431252

                     E (Thermal)             CV                S
                      KCal/Mol        Cal/Mol-Kelvin    Cal/Mol-Kelvin
 Total                  162.069             60.824            129.028
 Electronic               0.000              0.000              0.000
 Translational            0.889              2.981             42.202
 Rotational               0.889              2.981             33.135
 Vibrational            160.292             54.862             53.691
 Vibration     1          0.593              1.986              6.817
 Vibration     2          0.594              1.982              5.340
 Vibration     3          0.595              1.978              4.862
 Vibration     4          0.599              1.965              4.004
 Vibration     5          0.607              1.940              3.250
 Vibration     6          0.613              1.919              2.882
 Vibration     7          0.628              1.871              2.360
 Vibration     8          0.632              1.857              2.250
 Vibration     9          0.646              1.813              1.974
 Vibration    10          0.649              1.806              1.933
 Vibration    11          0.656              1.784              1.824
 Vibration    12          0.668              1.747              1.667
 Vibration    13          0.686              1.692              1.472
 Vibration    14          0.718              1.600              1.223
 Vibration    15          0.750              1.512              1.037
 Vibration    16          0.768              1.465              0.954
 Vibration    17          0.772              1.454              0.936
 Vibration    18          0.808              1.364              0.799
 Vibration    19          0.824              1.323              0.746
 Vibration    20          0.872              1.211              0.616
 Vibration    21          0.893              1.166              0.569
 Vibration    22          0.916              1.116              0.523
 Vibration    23          0.936              1.076              0.486
 Vibration    24          0.953              1.042              0.458
 Vibration    25          0.978              0.993              0.419

 Optimization completed.
    -- Stationary point found.
 Normal termination of Gaussian 16 at Sat Mar 16 17:11:38 2019.
