============================== echo of input deck ==============================
echo
start naproxen_355.9_001.inp
title "naproxen roa calculations at 355.9 nm"
charge 0

geometry units angstrom nocenter noautoz noautosym nucleus point;symmetry c1
 O -2.048635 -0.721275 -0.451130
 C -0.675092 -0.646685 -0.540003
 C -0.120370  0.622246 -0.429067
 C  1.281720  0.812392 -0.505872
 C  1.890965  2.096568 -0.393600
 C  3.261023  2.242322 -0.472827
 C  4.119126  1.121258 -0.675258
 C  3.549282 -0.138196 -0.781550
 C  2.141512 -0.329073 -0.703277
 C  0.167653 -1.777933 -0.733769
 C  5.635555  1.347459 -0.768566
 C  6.329353  0.814106  0.491506
 O  6.537303 -0.545741  0.449017
 O  6.661539  1.489159  1.445989
 C  6.260538  0.800503 -2.074892
 H  5.806357  2.429840 -0.725514
 H  5.786328  1.283657 -2.938199
 H  6.124004 -0.281920 -2.167407
 H  7.337518  1.011537 -2.110294
 H  6.949645 -0.782978  1.307063
 H  1.256857  2.970142 -0.241658
 H  3.702644  3.234483 -0.379388
 H  4.179770 -1.016365 -0.918661
 C  1.538839 -1.611812 -0.811855
 H -0.256035 -2.774656 -0.821417
 H  2.177167 -2.483106 -0.960476
 H -0.781127  1.475359 -0.280033
 C -2.682321 -2.006774 -0.555104
 H -2.358415 -2.683788  0.249737
 H -2.487265 -2.476347 -1.531084
 H -3.754162 -1.812010 -0.454892
end

basis spherical
* library def2-TZVP
end

 set prop:newaoresp 1
 set aor:roadata T
 set cphf:maxsub 100
 set cphf:acc 1.0d-10
 set cphf:maxiter 100

property
    response 1   0.128023
    bdtensor
    convergence 1e-7
    damping 0.0037
    giao
end

dft
 direct
 mult 1
 xc becke88 lyp
 iterations 250
 tolerances tight
 grid xfine
 convergence nolevelshifting
 convergence energy 1e-6
 convergence gradient 1e-6

end

task dft gradient
task dft property
================================================================================

 Output coordinates in angstroms (scale by  1.889725989 to convert to a.u.)

  No.       Tag          Charge          X              Y              Z
 ---- ---------------- ---------- -------------- -------------- --------------
    1 O                    8.0000    -2.04863500    -0.72127500    -0.45113000
    2 C                    6.0000    -0.67509200    -0.64668500    -0.54000300
    3 C                    6.0000    -0.12037000     0.62224600    -0.42906700
    4 C                    6.0000     1.28172000     0.81239200    -0.50587200
    5 C                    6.0000     1.89096500     2.09656800    -0.39360000
    6 C                    6.0000     3.26102300     2.24232200    -0.47282700
    7 C                    6.0000     4.11912600     1.12125800    -0.67525800
    8 C                    6.0000     3.54928200    -0.13819600    -0.78155000
    9 C                    6.0000     2.14151200    -0.32907300    -0.70327700
   10 C                    6.0000     0.16765300    -1.77793300    -0.73376900
   11 C                    6.0000     5.63555500     1.34745900    -0.76856600
   12 C                    6.0000     6.32935300     0.81410600     0.49150600
   13 O                    8.0000     6.53730300    -0.54574100     0.44901700
   14 O                    8.0000     6.66153900     1.48915900     1.44598900
   15 C                    6.0000     6.26053800     0.80050300    -2.07489200
   16 H                    1.0000     5.80635700     2.42984000    -0.72551400
   17 H                    1.0000     5.78632800     1.28365700    -2.93819900
   18 H                    1.0000     6.12400400    -0.28192000    -2.16740700
   19 H                    1.0000     7.33751800     1.01153700    -2.11029400
   20 H                    1.0000     6.94964500    -0.78297800     1.30706300
   21 H                    1.0000     1.25685700     2.97014200    -0.24165800
   22 H                    1.0000     3.70264400     3.23448300    -0.37938800
   23 H                    1.0000     4.17977000    -1.01636500    -0.91866100
   24 C                    6.0000     1.53883900    -1.61181200    -0.81185500
   25 H                    1.0000    -0.25603500    -2.77465600    -0.82141700
   26 H                    1.0000     2.17716700    -2.48310600    -0.96047600
   27 H                    1.0000    -0.78112700     1.47535900    -0.28003300
   28 C                    6.0000    -2.68232100    -2.00677400    -0.55510400
   29 H                    1.0000    -2.35841500    -2.68378800     0.24973700
   30 H                    1.0000    -2.48726500    -2.47634700    -1.53108400
   31 H                    1.0000    -3.75416200    -1.81201000    -0.45489200

         Total DFT energy =     -767.629124788795
         Total DFT energy =     -767.629124787828

                       DFT Final Molecular Orbital Analysis
                       ------------------------------------

 Vector    1  Occ=2.000000D+00  E=-1.882019D+01

 Vector  530  Occ=0.000000D+00  E= 4.535107D+00

 Vector  531  Occ=0.000000D+00  E= 4.563476D+00

 Vector  532  Occ=0.000000D+00  E= 4.586839D+00

 Vector  533  Occ=0.000000D+00  E= 4.660653D+00

 Vector  534  Occ=0.000000D+00  E= 4.667392D+00

 Vector  535  Occ=0.000000D+00  E= 4.683167D+00

 Vector  536  Occ=0.000000D+00  E= 4.693812D+00

 Vector  537  Occ=0.000000D+00  E= 4.720992D+00

 Vector  538  Occ=0.000000D+00  E= 4.736314D+00

 Vector  539  Occ=0.000000D+00  E= 4.765680D+00

 Vector  540  Occ=0.000000D+00  E= 4.808582D+00

 Vector  541  Occ=0.000000D+00  E= 4.833701D+00

 Vector  542  Occ=0.000000D+00  E= 4.877464D+00

 Vector  543  Occ=0.000000D+00  E= 4.941915D+00

 Vector  544  Occ=0.000000D+00  E= 4.955852D+00

 Vector  545  Occ=0.000000D+00  E= 5.028522D+00

 Vector  546  Occ=0.000000D+00  E= 5.042173D+00

 Vector  547  Occ=0.000000D+00  E= 5.052790D+00

 Vector  548  Occ=0.000000D+00  E= 5.080072D+00

 Vector  549  Occ=0.000000D+00  E= 5.098796D+00

 Vector  550  Occ=0.000000D+00  E= 5.099301D+00

 Vector  551  Occ=0.000000D+00  E= 5.117440D+00

 Vector  552  Occ=0.000000D+00  E= 5.199822D+00

 Vector  553  Occ=0.000000D+00  E= 5.215335D+00

 Vector  554  Occ=0.000000D+00  E= 5.241953D+00

 Vector  555  Occ=0.000000D+00  E= 5.264695D+00

 Vector  556  Occ=0.000000D+00  E= 5.272805D+00

 Vector  557  Occ=0.000000D+00  E= 5.290974D+00

 Vector  558  Occ=0.000000D+00  E= 5.318004D+00

 Vector  559  Occ=0.000000D+00  E= 5.384005D+00

 Vector  560  Occ=0.000000D+00  E= 5.393285D+00

 Vector  561  Occ=0.000000D+00  E= 5.461424D+00

 Vector  562  Occ=0.000000D+00  E= 5.502017D+00

 Vector  563  Occ=0.000000D+00  E= 5.534914D+00

 Vector  564  Occ=0.000000D+00  E= 5.574865D+00

 Vector  565  Occ=0.000000D+00  E= 5.601348D+00

 Vector  566  Occ=0.000000D+00  E= 5.611695D+00

 Vector  567  Occ=0.000000D+00  E= 5.735771D+00

 Vector  568  Occ=0.000000D+00  E= 5.752692D+00

 Vector  569  Occ=0.000000D+00  E= 5.753985D+00

 Vector  570  Occ=0.000000D+00  E= 5.811453D+00

 Vector  571  Occ=0.000000D+00  E= 5.885900D+00

 Vector  572  Occ=0.000000D+00  E= 6.049518D+00

 Vector  573  Occ=0.000000D+00  E= 6.095094D+00

 Vector  574  Occ=0.000000D+00  E= 6.199521D+00

 Vector  575  Occ=0.000000D+00  E= 6.222102D+00

 Vector  576  Occ=0.000000D+00  E= 6.228840D+00

 Vector  577  Occ=0.000000D+00  E= 6.333870D+00

 Vector  578  Occ=0.000000D+00  E= 6.357369D+00

 Vector  579  Occ=0.000000D+00  E= 6.362270D+00

 Vector  580  Occ=0.000000D+00  E= 6.492622D+00

 Vector  581  Occ=0.000000D+00  E= 6.519202D+00

 Vector  582  Occ=0.000000D+00  E= 6.574822D+00

 Vector  583  Occ=0.000000D+00  E= 6.635752D+00

 Vector  584  Occ=0.000000D+00  E= 6.647268D+00

 Vector  585  Occ=0.000000D+00  E= 6.701632D+00

 Vector  586  Occ=0.000000D+00  E= 6.714439D+00

 Vector  587  Occ=0.000000D+00  E= 6.780953D+00

 Vector  588  Occ=0.000000D+00  E= 6.946613D+00

 Vector  589  Occ=0.000000D+00  E= 6.976553D+00

 Vector  590  Occ=0.000000D+00  E= 7.024753D+00

 Vector  591  Occ=0.000000D+00  E= 7.167891D+00

 Vector  592  Occ=0.000000D+00  E= 7.281734D+00

 Vector  593  Occ=0.000000D+00  E= 2.177821D+01

 Vector  594  Occ=0.000000D+00  E= 2.200072D+01

 Vector  595  Occ=0.000000D+00  E= 2.206274D+01

 Vector  596  Occ=0.000000D+00  E= 2.222871D+01

 Vector  597  Occ=0.000000D+00  E= 2.233864D+01

 Vector  598  Occ=0.000000D+00  E= 2.237302D+01

 Vector  599  Occ=0.000000D+00  E= 2.239478D+01

 Vector  600  Occ=0.000000D+00  E= 2.245779D+01

 Vector  601  Occ=0.000000D+00  E= 2.252195D+01

 Vector  602  Occ=0.000000D+00  E= 2.260072D+01

 Vector  603  Occ=0.000000D+00  E= 2.271391D+01

 Vector  604  Occ=0.000000D+00  E= 2.277160D+01

 Vector  605  Occ=0.000000D+00  E= 2.286602D+01

 Vector  606  Occ=0.000000D+00  E= 2.326153D+01

 Vector  607  Occ=0.000000D+00  E= 4.335880D+01

 Vector  608  Occ=0.000000D+00  E= 4.345009D+01

 Vector  609  Occ=0.000000D+00  E= 4.376519D+01

     Multipole analysis of the density
     ---------------------------------

     L   x y z        total         alpha         beta         nuclear
     -   - - -        -----         -----         ----         -------
     0   0 0 0     -0.000000    -61.000000    -61.000000    122.000000

     1   1 0 0     -0.555760   -301.756865   -301.756865    602.957970
     1   0 1 0     -1.014055    -19.356362    -19.356362     37.698669
     1   0 0 1     -0.541900     50.889620     50.889620   -102.321139

     2   2 0 0    -74.172349  -3657.794617  -3657.794617   7241.416885
     2   1 1 0     -3.755116   -587.761438   -587.761438   1171.767759
     2   1 0 1     -5.625014    135.166178    135.166178   -275.957371
     2   0 2 0    -68.713175   -458.603968   -458.603968    848.494762
     2   0 1 1     -2.820374    -18.847343    -18.847343     34.874311

 Total times  cpu:    15641.4s     wall:    15961.7s
